/*--------------------------------*- C++ -*----------------------------------*\
| =========                 |                                                 |
| \\      /  F ield         | OpenFOAM: The Open Source CFD Toolbox           |
|  \\    /   O peration     | Version:  4.1                                   |
|   \\  /    A nd           | Web:      www.OpenFOAM.org                      |
|    \\/     M anipulation  |                                                 |
\*---------------------------------------------------------------------------*/
FoamFile
{
    version     2.0;
    format      ascii;
    class       volScalarField;
    location    "4";
    object      epsilon;
}
// * * * * * * * * * * * * * * * * * * * * * * * * * * * * * * * * * * * * * //

dimensions      [0 2 -3 0 0 0 0];

internalField   nonuniform List<scalar> 
400
(
0.0393351
0.0678416
0.0879184
0.0972061
0.103544
0.108556
0.11283
0.116579
0.11981
0.122707
0.125228
0.127683
0.130058
0.132629
0.135924
0.138978
0.142679
0.147702
0.16456
0.144636
0.00991429
0.00786424
0.00812101
0.0085855
0.0091805
0.00995459
0.010888
0.0120828
0.0134024
0.0149445
0.0164783
0.0182741
0.0198282
0.0218262
0.0232207
0.0271838
0.0325756
0.0454959
0.0727835
0.107964
0.0112464
0.00563983
0.00388646
0.00328515
0.00317152
0.00326805
0.00355871
0.00411092
0.00479141
0.00559735
0.00641101
0.00726726
0.00797076
0.00867418
0.00905787
0.00988556
0.0115435
0.0175918
0.0355274
0.080116
0.0120403
0.00482587
0.00317817
0.00274133
0.00275309
0.00294884
0.00337698
0.00394184
0.00454234
0.00511285
0.00556221
0.00585928
0.00594766
0.00593054
0.00576704
0.00581328
0.00642325
0.0102655
0.023572
0.0657527
0.0124879
0.00457335
0.0031461
0.00297907
0.00323246
0.00371628
0.00425561
0.00479223
0.00524509
0.00555301
0.00564645
0.00554035
0.00521965
0.00476086
0.0042521
0.00402268
0.00445087
0.00776057
0.0188967
0.0572164
0.0126662
0.00456472
0.00361884
0.00356002
0.00406147
0.004662
0.00523248
0.00568938
0.00594693
0.00599554
0.00577369
0.00531882
0.00468071
0.00396033
0.00335686
0.00314751
0.00381543
0.00714617
0.018264
0.0505901
0.0127581
0.00534218
0.00423496
0.00412706
0.0047338
0.00543499
0.00598909
0.00631806
0.00642945
0.00628693
0.0058409
0.00518477
0.00441959
0.00368436
0.00331424
0.00325862
0.00420072
0.00782112
0.019075
0.0445261
0.0128624
0.00599787
0.00454218
0.00438627
0.00500056
0.00573532
0.00623763
0.00647424
0.00652525
0.00624175
0.00573258
0.00512896
0.00454299
0.00420544
0.0040975
0.00440542
0.00591601
0.0101233
0.0212253
0.037945
0.0128373
0.00672008
0.00455038
0.00401045
0.00401208
0.00447157
0.00474757
0.00496735
0.00506409
0.00510023
0.00512041
0.00519504
0.0053976
0.00577763
0.0064798
0.00778143
0.0102556
0.0147592
0.0219103
0.0299538
0.0127356
0.00709477
0.0044361
0.0034879
0.00326593
0.00325425
0.00345238
0.00369668
0.00403417
0.00445012
0.00497601
0.00563876
0.00648535
0.00759204
0.00906402
0.0110623
0.0137429
0.0169415
0.0184995
0.0169211
0.0127225
0.0070935
0.00443408
0.00348462
0.00326224
0.00325083
0.00345165
0.00369707
0.00403497
0.00444984
0.00497367
0.00563281
0.00647476
0.00757522
0.0090423
0.011038
0.0137258
0.0169846
0.0185858
0.0171394
0.0128182
0.00671537
0.00453263
0.00398168
0.00397778
0.00443059
0.00471165
0.00494079
0.00504448
0.00508386
0.00510284
0.00516623
0.00535684
0.00571988
0.0063995
0.00768106
0.0101375
0.0146522
0.0219322
0.0301755
0.0128351
0.00599193
0.00452758
0.00436684
0.0049704
0.00570002
0.00619941
0.00643491
0.00648585
0.00620761
0.00570236
0.00510232
0.00451446
0.00416855
0.00405673
0.0043527
0.00584844
0.0100348
0.0211344
0.0380416
0.0127284
0.00533868
0.0042265
0.00411493
0.00471553
0.00541367
0.00596307
0.00628617
0.00639432
0.0062493
0.00580492
0.00515265
0.00439231
0.00366198
0.00329188
0.00323636
0.00417048
0.00777141
0.0190083
0.044596
0.012635
0.00456126
0.00361882
0.00355937
0.00406089
0.0046597
0.00522448
0.00567366
0.00592511
0.00597044
0.00574811
0.00529586
0.00466235
0.00394768
0.00334688
0.00313712
0.00379969
0.00711314
0.0182042
0.0506179
0.0124568
0.00456927
0.0031469
0.00298424
0.00323948
0.00372274
0.00425756
0.00478732
0.00523332
0.00553621
0.00562697
0.00552128
0.00520283
0.00474775
0.00424252
0.00401595
0.00444182
0.0077383
0.0188428
0.05722
0.01201
0.00481994
0.00317915
0.0027464
0.00275912
0.00295438
0.00337934
0.00393792
0.00453133
0.00509553
0.00553997
0.00583498
0.00592314
0.00590752
0.00574765
0.00579656
0.00640681
0.0102424
0.0235498
0.0657281
0.0112148
0.00562929
0.0038856
0.00328894
0.00317584
0.00327107
0.00355793
0.00410273
0.00477344
0.00556941
0.00637315
0.00722233
0.0079207
0.00862405
0.00901045
0.00984358
0.011507
0.017557
0.0354971
0.0800829
0.00989172
0.00785283
0.00811609
0.00858279
0.00917444
0.00994254
0.0108667
0.0120509
0.0133563
0.014885
0.0164027
0.0181855
0.019728
0.0217141
0.023112
0.0270892
0.0324885
0.0454213
0.0727292
0.107889
0.039334
0.0678782
0.0879592
0.0972379
0.103549
0.108532
0.112772
0.116495
0.119696
0.122574
0.12507
0.127514
0.129874
0.132446
0.135738
0.138792
0.142498
0.147527
0.164404
0.144528
)
;

boundaryField
{
    movingWall
    {
        Cmu             0.09;
        kappa           0.41;
        E               9.8;
        type            epsilonWallFunction;
        value           nonuniform List<scalar> 
20
(
0.039334
0.0678782
0.0879592
0.0972379
0.103549
0.108532
0.112772
0.116495
0.119696
0.122574
0.12507
0.127514
0.129874
0.132446
0.135738
0.138792
0.142498
0.147527
0.164404
0.144528
)
;
    }
    movingWallBottom
    {
        Cmu             0.09;
        kappa           0.41;
        E               9.8;
        type            epsilonWallFunction;
        value           nonuniform List<scalar> 
20
(
0.0393351
0.0678416
0.0879184
0.0972061
0.103544
0.108556
0.11283
0.116579
0.11981
0.122707
0.125228
0.127683
0.130058
0.132629
0.135924
0.138978
0.142679
0.147702
0.16456
0.144636
)
;
    }
    fixedWalls
    {
        Cmu             0.09;
        kappa           0.41;
        E               9.8;
        type            epsilonWallFunction;
        value           nonuniform List<scalar> 
40
(
0.0393351
0.00991429
0.0112464
0.0120403
0.0124879
0.0126662
0.0127581
0.0128624
0.0128373
0.0127356
0.0127225
0.0128182
0.0128351
0.0127284
0.012635
0.0124568
0.01201
0.0112148
0.00989172
0.039334
0.144636
0.107964
0.080116
0.0657527
0.0572164
0.0505901
0.0445261
0.037945
0.0299538
0.0169211
0.0171394
0.0301755
0.0380416
0.044596
0.0506179
0.05722
0.0657281
0.0800829
0.107889
0.144528
)
;
    }
    frontAndBack
    {
        type            empty;
    }
}


// ************************************************************************* //
