/*--------------------------------*- C++ -*----------------------------------*\
| =========                 |                                                 |
| \\      /  F ield         | OpenFOAM: The Open Source CFD Toolbox           |
|  \\    /   O peration     | Version:  4.1                                   |
|   \\  /    A nd           | Web:      www.OpenFOAM.org                      |
|    \\/     M anipulation  |                                                 |
\*---------------------------------------------------------------------------*/
FoamFile
{
    version     2.0;
    format      ascii;
    class       volScalarField;
    location    "4";
    object      k;
}
// * * * * * * * * * * * * * * * * * * * * * * * * * * * * * * * * * * * * * //

dimensions      [0 2 -2 0 0 0 0];

internalField   nonuniform List<scalar> 
400
(
0.00391961
0.00563704
0.00670057
0.00716474
0.007473
0.00771225
0.00791337
0.00808758
0.00823629
0.00836843
0.00848259
0.00859301
0.00869919
0.00881345
0.00895873
0.00909242
0.00925308
0.009469
0.0101764
0.00933732
0.00156415
0.00160392
0.0017783
0.00187579
0.00192945
0.00199312
0.00208559
0.0022166
0.00237495
0.00256299
0.00275969
0.00297547
0.0031613
0.00336944
0.00348001
0.0037212
0.00397139
0.00464347
0.00625855
0.00768341
0.00170136
0.00153756
0.00157297
0.00158614
0.00160937
0.00166543
0.00178242
0.00195778
0.0021684
0.00239809
0.00261556
0.002798
0.00292435
0.00295737
0.00291445
0.00281655
0.00266213
0.00290891
0.00407605
0.00629772
0.00178057
0.00152727
0.00152891
0.00155788
0.00165611
0.00186554
0.00213515
0.00241997
0.00268398
0.00289815
0.00303368
0.00307546
0.00303784
0.00292187
0.00268842
0.00242562
0.00215902
0.00231587
0.00324125
0.00552043
0.00182458
0.00170534
0.00167889
0.00174289
0.00195184
0.00223534
0.00253837
0.00282601
0.00305086
0.00318791
0.00322101
0.00315589
0.0029792
0.00271791
0.00237732
0.00206077
0.00184343
0.00207335
0.0029423
0.00503165
0.00184198
0.00187385
0.00181766
0.00190518
0.00219074
0.00251467
0.0028131
0.00305284
0.00321305
0.00326823
0.00320361
0.00301831
0.00273115
0.00237042
0.00198502
0.00168422
0.00156828
0.00183805
0.00277791
0.00463525
0.00185097
0.00209381
0.00195121
0.00198435
0.00229379
0.00262787
0.00290671
0.00308221
0.00314706
0.00311376
0.00294926
0.00268047
0.00233368
0.00194531
0.00160517
0.00145784
0.00144168
0.00184497
0.00279585
0.00425703
0.00186108
0.00231485
0.00200441
0.00199299
0.00223349
0.00248988
0.00265438
0.00272385
0.00272915
0.00258731
0.00237736
0.00210862
0.00183306
0.00160508
0.00149509
0.00145728
0.0015373
0.00199866
0.00289977
0.00382649
0.00185869
0.00249348
0.00181057
0.00163421
0.00163527
0.00174574
0.00179402
0.00181086
0.00178776
0.00171364
0.00164621
0.00158607
0.00155919
0.00155195
0.00159856
0.00171886
0.00198168
0.00242563
0.00292898
0.00326836
0.00184893
0.00262644
0.00173229
0.00139673
0.00129255
0.00126341
0.00125741
0.00128255
0.00131427
0.00136692
0.00143203
0.00151952
0.00162628
0.00176298
0.00193652
0.00215259
0.00240616
0.0026074
0.00268315
0.00223349
0.00184765
0.00262584
0.00173136
0.00139558
0.00129162
0.00126296
0.00125733
0.00128355
0.00131534
0.00136766
0.00143225
0.00151879
0.00162491
0.00176036
0.00193312
0.00214978
0.00240387
0.00261128
0.00269095
0.0022527
0.00185684
0.00249271
0.00180444
0.00162327
0.00162209
0.00173402
0.00178424
0.00180296
0.00178766
0.00171464
0.00164919
0.00158595
0.0015571
0.00154847
0.00158942
0.00170744
0.00196757
0.00241469
0.00293133
0.0032845
0.00185843
0.00231184
0.00199594
0.00198308
0.00222016
0.00247693
0.00264335
0.00271487
0.002722
0.00258581
0.0023798
0.00211385
0.00183905
0.00160687
0.00149452
0.00145564
0.00153265
0.00199128
0.00289206
0.00383298
0.00184809
0.00209019
0.00194405
0.00197602
0.00228533
0.00261849
0.0028965
0.0030719
0.00313706
0.00310619
0.00294464
0.00267916
0.00233572
0.00194988
0.00160827
0.00145916
0.00144204
0.00184268
0.00279127
0.00426149
0.00183894
0.00187031
0.00181236
0.00189894
0.00218418
0.0025073
0.0028045
0.00304307
0.00320324
0.00325944
0.00319698
0.00301443
0.00273043
0.00237261
0.00198944
0.00168897
0.00157205
0.00183753
0.00277395
0.00463694
0.00182154
0.00170225
0.00167497
0.00173935
0.00194835
0.00223096
0.00253226
0.00281813
0.00304185
0.00317889
0.00321303
0.00314969
0.00297553
0.00271712
0.00237862
0.00206349
0.00184519
0.00207284
0.0029383
0.00503186
0.00177758
0.0015242
0.00152571
0.00155494
0.00165318
0.00186188
0.00212964
0.00241256
0.00267515
0.00288856
0.00302413
0.00306686
0.00303026
0.00291609
0.00268502
0.00242417
0.00215741
0.00231311
0.00323769
0.00551905
0.00169817
0.0015344
0.00156978
0.00158337
0.00160666
0.00166227
0.00177787
0.00195083
0.00215888
0.00238639
0.00260238
0.00278447
0.00291101
0.00294577
0.00290387
0.00280803
0.00265529
0.00290246
0.00407223
0.00629598
0.00156178
0.00160127
0.00177546
0.00187305
0.00192648
0.00198967
0.00208111
0.0022106
0.00236693
0.00255294
0.00274735
0.00296134
0.00314548
0.00335249
0.00346318
0.00370536
0.00395746
0.004633
0.00625374
0.00767985
0.00391954
0.00563906
0.00670264
0.00716629
0.00747326
0.00771112
0.00791065
0.00808368
0.00823105
0.00836238
0.00847547
0.00858548
0.008691
0.00880534
0.00895059
0.00908433
0.00924527
0.00946154
0.01017
0.00933265
)
;

boundaryField
{
    movingWall
    {
        type            kqRWallFunction;
        value           nonuniform List<scalar> 
20
(
0.00391954
0.00563906
0.00670264
0.00716629
0.00747326
0.00771112
0.00791065
0.00808368
0.00823105
0.00836238
0.00847547
0.00858548
0.008691
0.00880534
0.00895059
0.00908433
0.00924527
0.00946154
0.01017
0.00933265
)
;
    }
    movingWallBottom
    {
        type            kqRWallFunction;
        value           nonuniform List<scalar> 
20
(
0.00391961
0.00563704
0.00670057
0.00716474
0.007473
0.00771225
0.00791337
0.00808758
0.00823629
0.00836843
0.00848259
0.00859301
0.00869919
0.00881345
0.00895873
0.00909242
0.00925308
0.009469
0.0101764
0.00933732
)
;
    }
    fixedWalls
    {
        type            kqRWallFunction;
        value           nonuniform List<scalar> 
40
(
0.00391961
0.00156415
0.00170136
0.00178057
0.00182458
0.00184198
0.00185097
0.00186108
0.00185869
0.00184893
0.00184765
0.00185684
0.00185843
0.00184809
0.00183894
0.00182154
0.00177758
0.00169817
0.00156178
0.00391954
0.00933732
0.00768341
0.00629772
0.00552043
0.00503165
0.00463525
0.00425703
0.00382649
0.00326836
0.00223349
0.0022527
0.0032845
0.00383298
0.00426149
0.00463694
0.00503186
0.00551905
0.00629598
0.00767985
0.00933265
)
;
    }
    frontAndBack
    {
        type            empty;
    }
}


// ************************************************************************* //
