/*--------------------------------*- C++ -*----------------------------------*\
| =========                 |                                                 |
| \\      /  F ield         | OpenFOAM: The Open Source CFD Toolbox           |
|  \\    /   O peration     | Version:  4.1                                   |
|   \\  /    A nd           | Web:      www.OpenFOAM.org                      |
|    \\/     M anipulation  |                                                 |
\*---------------------------------------------------------------------------*/
FoamFile
{
    version     2.0;
    format      ascii;
    class       volScalarField;
    location    "4";
    object      nut;
}
// * * * * * * * * * * * * * * * * * * * * * * * * * * * * * * * * * * * * * //

dimensions      [0 2 -1 0 0 0 0];

internalField   nonuniform List<scalar> 
400
(
3.51518e-05
4.21549e-05
4.59607e-05
4.7528e-05
4.85409e-05
4.93119e-05
4.99504e-05
5.04963e-05
5.09579e-05
5.1364e-05
5.17127e-05
5.20476e-05
5.23677e-05
5.27103e-05
5.31424e-05
5.35371e-05
5.40077e-05
5.46341e-05
5.66376e-05
5.42513e-05
2.22094e-05
2.94409e-05
3.50464e-05
3.68846e-05
3.64959e-05
3.59159e-05
3.59544e-05
3.65973e-05
3.78763e-05
3.956e-05
4.15959e-05
4.36031e-05
4.53617e-05
4.68143e-05
4.69383e-05
4.58457e-05
4.35749e-05
4.26536e-05
4.84348e-05
4.92122e-05
2.31644e-05
3.77258e-05
5.7297e-05
6.89239e-05
7.35e-05
7.63843e-05
8.03475e-05
8.39136e-05
8.83201e-05
9.24677e-05
9.60387e-05
9.69544e-05
9.65613e-05
9.07454e-05
8.43976e-05
7.2223e-05
5.52539e-05
4.32905e-05
4.2088e-05
4.45543e-05
2.36987e-05
4.35008e-05
6.61956e-05
7.96799e-05
8.96606e-05
0.000106218
0.000121498
0.00013371
0.000142732
0.000147851
0.000148913
0.000145284
0.000139645
0.00012956
0.000112793
9.10892e-05
6.53131e-05
4.70211e-05
4.01117e-05
4.17133e-05
2.39927e-05
5.72308e-05
8.06332e-05
9.17707e-05
0.000106071
0.00012101
0.000136267
0.000149987
0.000159711
0.000164713
0.000165368
0.000161789
0.000153039
0.000139645
0.000119623
9.50136e-05
6.87148e-05
4.98531e-05
4.12315e-05
3.98238e-05
2.41083e-05
6.92305e-05
8.21669e-05
9.17621e-05
0.000106351
0.000122076
0.000136115
0.00014743
0.000156237
0.000160339
0.000159981
0.000154154
0.000143424
0.000127691
0.000105643
8.11094e-05
5.80158e-05
4.25485e-05
3.8026e-05
3.82228e-05
2.41689e-05
7.38581e-05
8.09096e-05
8.58693e-05
0.000100032
0.000114354
0.000126965
0.000135326
0.000138637
0.000138795
0.000134026
0.00012472
0.000110903
9.24397e-05
6.99682e-05
5.86984e-05
4.45306e-05
3.91697e-05
3.68811e-05
3.66304e-05
2.42353e-05
8.04067e-05
7.96074e-05
8.14996e-05
8.97823e-05
9.72845e-05
0.00010166
0.000103138
0.00010273
9.65233e-05
8.87321e-05
7.80206e-05
6.65665e-05
5.51345e-05
4.90975e-05
4.33853e-05
3.59526e-05
3.55138e-05
3.56546e-05
3.47287e-05
2.42206e-05
8.32687e-05
6.48376e-05
5.9933e-05
5.99863e-05
6.13396e-05
6.10137e-05
5.94139e-05
5.68012e-05
5.18197e-05
4.76329e-05
4.35809e-05
4.0536e-05
3.75186e-05
3.54928e-05
3.41715e-05
3.44625e-05
3.58781e-05
3.52393e-05
3.2096e-05
2.41581e-05
8.75065e-05
6.08811e-05
5.03388e-05
4.60397e-05
4.41447e-05
4.12174e-05
4.00476e-05
3.85351e-05
3.77884e-05
3.70906e-05
3.68528e-05
3.6703e-05
3.68452e-05
3.72363e-05
3.7698e-05
3.79151e-05
3.61167e-05
3.50243e-05
2.65327e-05
2.41496e-05
8.74818e-05
6.08436e-05
5.03033e-05
4.60252e-05
4.41597e-05
4.12208e-05
4.01058e-05
3.85905e-05
3.78313e-05
3.71198e-05
3.68564e-05
3.67008e-05
3.6817e-05
3.71948e-05
3.76826e-05
3.78902e-05
3.61322e-05
3.5065e-05
2.66473e-05
2.42083e-05
8.32753e-05
6.46509e-05
5.95607e-05
5.95324e-05
6.10787e-05
6.08102e-05
5.92135e-05
5.70159e-05
5.20468e-05
4.79701e-05
4.38174e-05
4.07351e-05
3.77279e-05
3.55284e-05
3.41595e-05
3.43694e-05
3.58147e-05
3.52605e-05
3.21755e-05
2.42178e-05
8.02772e-05
7.91899e-05
8.10507e-05
8.92526e-05
9.6871e-05
0.000101438
0.000103086
0.000102814
9.69417e-05
8.93862e-05
7.88176e-05
6.74255e-05
5.57466e-05
4.95532e-05
4.38116e-05
3.61483e-05
3.55632e-05
3.56179e-05
3.47583e-05
2.41499e-05
7.36515e-05
8.04781e-05
8.54008e-05
9.96807e-05
0.000113987
0.000126625
0.000135104
0.000138514
0.000138953
0.000134435
0.000125375
0.000111787
9.34421e-05
7.0716e-05
5.92092e-05
4.48759e-05
3.93226e-05
3.68895e-05
3.66496e-05
2.40881e-05
6.90216e-05
8.16888e-05
9.11781e-05
0.00010573
0.000121422
0.000135491
0.000146894
0.000155856
0.000160148
0.000160029
0.000154424
0.000143913
0.000128338
0.00010643
8.18378e-05
5.85363e-05
4.27218e-05
3.80425e-05
3.82298e-05
2.39725e-05
5.70742e-05
8.02369e-05
9.12398e-05
0.000105463
0.000120327
0.00013555
0.000149304
0.000159126
0.000164278
0.000165119
0.000161711
0.000153156
0.00013995
0.000120024
9.54242e-05
6.89861e-05
4.99722e-05
4.1237e-05
3.98246e-05
2.36788e-05
4.33794e-05
6.58983e-05
7.92333e-05
8.91476e-05
0.000105604
0.000120788
0.000133025
0.000142139
0.000147373
0.000148571
0.000145075
0.000139525
0.000129551
0.000112888
9.1243e-05
6.53829e-05
4.70144e-05
4.00614e-05
4.17081e-05
2.31427e-05
3.76416e-05
5.70769e-05
6.86041e-05
7.31527e-05
7.60246e-05
7.9955e-05
8.34848e-05
8.78752e-05
9.20274e-05
9.5638e-05
9.66162e-05
9.62868e-05
9.05581e-05
8.42269e-05
7.20929e-05
5.51444e-05
4.31842e-05
4.20451e-05
4.45482e-05
2.21927e-05
2.93865e-05
3.49556e-05
3.67884e-05
3.64077e-05
3.58349e-05
3.58702e-05
3.64959e-05
3.7751e-05
3.94071e-05
4.14147e-05
4.34003e-05
4.51371e-05
4.6584e-05
4.67041e-05
4.56149e-05
4.33856e-05
4.25312e-05
4.83964e-05
4.92009e-05
3.51515e-05
4.21624e-05
4.59678e-05
4.75331e-05
4.85417e-05
4.93082e-05
4.99418e-05
5.04841e-05
5.09417e-05
5.13455e-05
5.16911e-05
5.2025e-05
5.23432e-05
5.26862e-05
5.31184e-05
5.35134e-05
5.39851e-05
5.46127e-05
5.66199e-05
5.42378e-05
)
;

boundaryField
{
    movingWall
    {
        type            nutkWallFunction;
        Cmu             0.09;
        kappa           0.41;
        E               9.8;
        value           nonuniform List<scalar> 
20
(
0
0
0
4.21166e-08
2.09695e-07
3.36834e-07
4.41753e-07
5.31505e-07
6.07079e-07
6.73769e-07
7.30717e-07
7.85693e-07
8.38049e-07
8.94364e-07
9.65301e-07
1.03003e-06
1.10721e-06
1.2097e-06
1.5363e-06
1.14878e-06
)
;
    }
    movingWallBottom
    {
        type            nutkWallFunction;
        Cmu             0.09;
        kappa           0.41;
        E               9.8;
        value           nonuniform List<scalar> 
20
(
0
0
0
4.12559e-08
2.09557e-07
3.37434e-07
4.43173e-07
5.33513e-07
6.09752e-07
6.76827e-07
7.34288e-07
7.89445e-07
8.42097e-07
8.98342e-07
9.6926e-07
1.03394e-06
1.11093e-06
1.21322e-06
1.53919e-06
1.151e-06
)
;
    }
    fixedWalls
    {
        type            nutkWallFunction;
        Cmu             0.09;
        kappa           0.41;
        E               9.8;
        value           nonuniform List<scalar> 
40
(
0
0
0
0
0
0
0
0
0
0
0
0
0
0
0
0
0
0
0
0
1.151e-06
3.22139e-07
0
0
0
0
0
0
0
0
0
0
0
0
0
0
0
0
3.20253e-07
1.14878e-06
)
;
    }
    frontAndBack
    {
        type            empty;
    }
}


// ************************************************************************* //
