/*--------------------------------*- C++ -*----------------------------------*\
| =========                 |                                                 |
| \\      /  F ield         | OpenFOAM: The Open Source CFD Toolbox           |
|  \\    /   O peration     | Version:  4.1                                   |
|   \\  /    A nd           | Web:      www.OpenFOAM.org                      |
|    \\/     M anipulation  |                                                 |
\*---------------------------------------------------------------------------*/
FoamFile
{
    version     2.0;
    format      ascii;
    class       volScalarField;
    location    "4";
    object      p;
}
// * * * * * * * * * * * * * * * * * * * * * * * * * * * * * * * * * * * * * //

dimensions      [0 2 -2 0 0 0 0];

internalField   nonuniform List<scalar> 
400
(
-1.32919e-07
0.000276805
-0.00423105
-0.00866395
-0.012527
-0.0157886
-0.0184561
-0.0205424
-0.0220925
-0.0231776
-0.0238657
-0.0241844
-0.0240962
-0.0234867
-0.0221322
-0.0195946
-0.0144333
-0.00549718
0.00828901
0.0294231
-0.00614068
-0.00579904
-0.0080508
-0.011149
-0.0143925
-0.0173164
-0.0197329
-0.0216098
-0.0229989
-0.023976
-0.0246144
-0.0249422
-0.0249464
-0.0245209
-0.0234325
-0.0212979
-0.017769
-0.0117694
-0.00307205
0.0162971
-0.00734721
-0.0080146
-0.010175
-0.0130353
-0.0159571
-0.0185201
-0.0205787
-0.0221484
-0.0233116
-0.0241398
-0.0246911
-0.0249708
-0.0249904
-0.0246689
-0.0239602
-0.0224873
-0.0202051
-0.016312
-0.0121456
-0.000822966
-0.00908039
-0.0102154
-0.0123982
-0.0151454
-0.0177747
-0.0199888
-0.0217163
-0.0230051
-0.0239437
-0.0246034
-0.0250351
-0.0252603
-0.0252797
-0.0250188
-0.0244575
-0.0233861
-0.0218927
-0.0190045
-0.0174144
-0.0107954
-0.00973816
-0.0112768
-0.0135441
-0.0162456
-0.0187314
-0.0207834
-0.0223549
-0.0234976
-0.0243018
-0.024847
-0.0251893
-0.0253558
-0.0253547
-0.0251323
-0.024649
-0.0237853
-0.022705
-0.0200561
-0.0190157
-0.0138839
-0.00894425
-0.0109362
-0.0134227
-0.0162805
-0.0188514
-0.0209412
-0.0225224
-0.0236535
-0.0244255
-0.0249242
-0.0252159
-0.0253331
-0.0252762
-0.0250076
-0.0244759
-0.0236014
-0.0223596
-0.0197335
-0.0174241
-0.0123854
-0.00676301
-0.00908336
-0.0119405
-0.0151343
-0.0180342
-0.0203891
-0.0221589
-0.0234095
-0.0242456
-0.0247575
-0.0250221
-0.0250842
-0.0249321
-0.0245467
-0.0238706
-0.0227474
-0.0208416
-0.0175105
-0.0133649
-0.00794692
-0.00347536
-0.00612875
-0.0093971
-0.0130464
-0.0164262
-0.0191992
-0.021293
-0.0227651
-0.0237306
-0.0242926
-0.0245383
-0.0245192
-0.0242419
-0.0236795
-0.0227063
-0.020992
-0.0179701
-0.0131729
-0.00703257
-0.0013775
-5.01531e-05
-0.00284304
-0.00640403
-0.0104502
-0.0143004
-0.0175434
-0.0200439
-0.0218157
-0.0229708
-0.023628
-0.0238814
-0.0237887
-0.0233761
-0.0225586
-0.0210708
-0.0183976
-0.0138824
-0.00721046
0.00106171
0.00583614
0.00219283
-0.000661726
-0.00436493
-0.00865632
-0.0127914
-0.0162805
-0.0190074
-0.0209877
-0.0223097
-0.0230674
-0.0233405
-0.0231873
-0.0226386
-0.0215542
-0.0195502
-0.0159526
-0.0101024
-0.00197598
0.00685756
0.0111987
0.00219812
-0.000651093
-0.00435143
-0.00864407
-0.0127842
-0.0162783
-0.0190104
-0.0209961
-0.0223227
-0.0230844
-0.023361
-0.0232105
-0.0226634
-0.0215823
-0.0195835
-0.0159937
-0.0101552
-0.00204345
0.00677883
0.0111237
-2.40631e-05
-0.0028077
-0.00636367
-0.0104137
-0.0142746
-0.0175315
-0.0200489
-0.0218376
-0.0230079
-0.0236776
-0.0239416
-0.0238573
-0.0234452
-0.0226276
-0.0211428
-0.0184796
-0.013984
-0.00734226
0.000890822
0.00567432
-0.00343172
-0.00607634
-0.00934215
-0.0129991
-0.0163951
-0.0191888
-0.0213042
-0.0227959
-0.0237788
-0.0243547
-0.0246102
-0.0245967
-0.0243227
-0.0237595
-0.0227843
-0.021073
-0.0180649
-0.0132936
-0.00719465
-0.00154949
-0.00670969
-0.00902351
-0.011881
-0.0150853
-0.0180041
-0.0203812
-0.0221735
-0.0234444
-0.0242976
-0.0248229
-0.0250967
-0.0251636
-0.0250135
-0.0246266
-0.0239466
-0.0228207
-0.0209201
-0.017601
-0.0134865
-0.00808915
-0.00888784
-0.0108751
-0.0133636
-0.0162322
-0.0188218
-0.0209335
-0.0225367
-0.023688
-0.0244766
-0.0249881
-0.0252887
-0.0254107
-0.0253552
-0.0250848
-0.0245482
-0.0236673
-0.0224227
-0.0197938
-0.0175079
-0.0124842
-0.00968324
-0.0112183
-0.0134869
-0.0161975
-0.0187001
-0.0207727
-0.0223655
-0.0235278
-0.0243484
-0.0249062
-0.0252572
-0.0254285
-0.0254286
-0.0252037
-0.0247149
-0.0238434
-0.0227523
-0.0200947
-0.0190685
-0.0139361
-0.00903062
-0.0101618
-0.0123432
-0.0150964
-0.0177399
-0.019973
-0.0217208
-0.0230287
-0.0239834
-0.0246557
-0.0250963
-0.0253265
-0.0253471
-0.0250829
-0.0245147
-0.0234322
-0.0219245
-0.019026
-0.0174297
-0.0108106
-0.00730542
-0.0079678
-0.0101238
-0.0129865
-0.0159186
-0.0184981
-0.0205756
-0.0221636
-0.0233429
-0.0241839
-0.0247442
-0.0250288
-0.0250495
-0.0247251
-0.0240082
-0.0225216
-0.0202228
-0.0163147
-0.0121322
-0.000807661
-0.00610836
-0.00576158
-0.00800418
-0.0111001
-0.0143499
-0.0172869
-0.0197204
-0.0216154
-0.0230213
-0.0240123
-0.0246607
-0.0249942
-0.0249994
-0.0245698
-0.0234722
-0.0213223
-0.0177735
-0.0117541
-0.00303679
0.0163345
2.58782e-05
0.000306312
-0.00419073
-0.00861916
-0.0124862
-0.0157593
-0.018443
-0.0205473
-0.0221142
-0.0232131
-0.0239107
-0.0242345
-0.0241464
-0.023532
-0.0221671
-0.0196133
-0.0144293
-0.00547104
0.00833243
0.0294709
)
;

boundaryField
{
    movingWall
    {
        type            zeroGradient;
    }
    movingWallBottom
    {
        type            zeroGradient;
    }
    fixedWalls
    {
        type            zeroGradient;
    }
    frontAndBack
    {
        type            empty;
    }
}


// ************************************************************************* //
