/*--------------------------------*- C++ -*----------------------------------*\
| =========                 |                                                 |
| \\      /  F ield         | OpenFOAM: The Open Source CFD Toolbox           |
|  \\    /   O peration     | Version:  4.1                                   |
|   \\  /    A nd           | Web:      www.OpenFOAM.org                      |
|    \\/     M anipulation  |                                                 |
\*---------------------------------------------------------------------------*/
FoamFile
{
    version     2.0;
    format      ascii;
    class       surfaceScalarField;
    location    "4";
    object      phi;
}
// * * * * * * * * * * * * * * * * * * * * * * * * * * * * * * * * * * * * * //

dimensions      [0 3 -1 0 0 0 0];

internalField   nonuniform List<scalar> 
760
(
3.30555e-06
-3.30554e-06
5.63615e-06
-2.3306e-06
7.46472e-06
-1.82857e-06
8.99025e-06
-1.52553e-06
1.02464e-05
-1.25614e-06
1.12589e-05
-1.01249e-06
1.20712e-05
-8.12325e-07
1.27249e-05
-6.53727e-07
1.3261e-05
-5.36054e-07
1.36993e-05
-4.38316e-07
1.40609e-05
-3.61628e-07
1.43399e-05
-2.78913e-07
1.45446e-05
-2.04749e-07
1.46313e-05
-8.67009e-08
1.46092e-05
2.21057e-08
1.42179e-05
3.91344e-07
1.34403e-05
7.77597e-07
1.14447e-05
1.99558e-06
7.84523e-06
3.59945e-06
7.84523e-06
1.16323e-06
-4.46877e-06
2.80721e-06
-3.97457e-06
4.31955e-06
-3.34092e-06
5.50125e-06
-2.70723e-06
6.37539e-06
-2.13028e-06
7.00833e-06
-1.64544e-06
7.45902e-06
-1.26301e-06
7.77167e-06
-9.66377e-07
7.98212e-06
-7.46507e-07
8.11601e-06
-5.72207e-07
8.19412e-06
-4.39738e-07
8.22217e-06
-3.06958e-07
8.19792e-06
-1.80501e-07
8.07222e-06
3.89925e-08
7.85757e-06
2.36758e-07
7.48837e-06
7.60542e-07
6.79973e-06
1.46624e-06
5.56521e-06
3.23009e-06
3.04757e-06
6.11709e-06
1.08928e-05
1.06836e-06
-5.53713e-06
2.35302e-06
-5.25924e-06
3.4202e-06
-4.4081e-06
4.19952e-06
-3.48654e-06
4.7289e-06
-2.65965e-06
5.06531e-06
-1.98185e-06
5.25292e-06
-1.45062e-06
5.33274e-06
-1.0462e-06
5.33297e-06
-7.46736e-07
5.28261e-06
-5.21852e-07
5.18904e-06
-3.46168e-07
5.06992e-06
-1.87833e-07
4.91871e-06
-2.92976e-08
4.73677e-06
2.20934e-07
4.42824e-06
5.4529e-07
4.03271e-06
1.15607e-06
3.35218e-06
2.14677e-06
2.51455e-06
4.06772e-06
1.15227e-06
7.47937e-06
1.20451e-05
7.93918e-07
-6.33105e-06
1.52834e-06
-5.99366e-06
2.15088e-06
-5.03064e-06
2.61453e-06
-3.95019e-06
2.92393e-06
-2.96905e-06
3.1033e-06
-2.16123e-06
3.18633e-06
-1.53365e-06
3.2033e-06
-1.06317e-06
3.17417e-06
-7.17607e-07
3.11367e-06
-4.61352e-07
3.02764e-06
-2.60142e-07
2.91675e-06
-7.69348e-08
2.76683e-06
1.2062e-07
2.59133e-06
3.96435e-07
2.34691e-06
7.89701e-07
2.05072e-06
1.45226e-06
1.58432e-06
2.61317e-06
1.06257e-06
4.58947e-06
4.32915e-07
8.10903e-06
1.2478e-05
3.92209e-07
-6.72326e-06
6.16e-07
-6.21745e-06
8.2333e-07
-5.23797e-06
9.84469e-07
-4.11132e-06
1.08856e-06
-3.07315e-06
1.14519e-06
-2.21786e-06
1.16663e-06
-1.55509e-06
1.16329e-06
-1.05983e-06
1.14189e-06
-6.96209e-07
1.10668e-06
-4.26138e-07
1.05759e-06
-2.11062e-07
9.96692e-07
-1.60322e-08
9.10105e-07
2.07207e-07
8.02879e-07
5.03661e-07
6.60866e-07
9.31714e-07
4.80339e-07
1.63279e-06
3.23995e-07
2.76952e-06
-8.94983e-08
5.00297e-06
-1.79448e-07
8.19898e-06
1.22985e-05
-2.27263e-07
-6.49599e-06
-4.3361e-07
-6.0111e-06
-5.92633e-07
-5.07895e-06
-7.05907e-07
-3.99805e-06
-7.93653e-07
-2.9854e-06
-8.58336e-07
-2.15317e-06
-9.01742e-07
-1.51168e-06
-9.27368e-07
-1.0342e-06
-9.40231e-07
-6.83346e-07
-9.44623e-07
-4.21746e-07
-9.46716e-07
-2.08969e-07
-9.51571e-07
-1.11778e-08
-9.64335e-07
2.19971e-07
-9.83101e-07
5.22427e-07
-1.00959e-06
9.58206e-07
-1.03276e-06
1.65596e-06
-1.04286e-06
2.77961e-06
-9.81644e-07
4.94176e-06
-8.78005e-07
8.09534e-06
1.14205e-05
-7.72612e-07
-5.72338e-06
-1.51737e-06
-5.26634e-06
-2.0784e-06
-4.51792e-06
-2.49667e-06
-3.57979e-06
-2.78785e-06
-2.69422e-06
-2.98259e-06
-1.95844e-06
-3.10427e-06
-1.39e-06
-3.17093e-06
-9.67535e-07
-3.19793e-06
-6.56346e-07
-3.19561e-06
-4.24073e-07
-3.17366e-06
-2.30911e-07
-3.14841e-06
-3.64353e-08
-3.10939e-06
1.80957e-07
-3.05781e-06
4.70848e-07
-2.99216e-06
8.92556e-07
-2.89353e-06
1.55732e-06
-2.76144e-06
2.64753e-06
-2.41025e-06
4.59056e-06
-1.77896e-06
7.46406e-06
9.64157e-06
-1.41066e-06
-4.31272e-06
-2.68595e-06
-3.99105e-06
-3.70609e-06
-3.49778e-06
-4.47156e-06
-2.81431e-06
-5.01365e-06
-2.15213e-06
-5.3846e-06
-1.58749e-06
-5.63171e-06
-1.14288e-06
-5.79248e-06
-8.06767e-07
-5.893e-06
-5.55827e-07
-5.95279e-06
-3.64281e-07
-5.98486e-06
-1.98846e-07
-6.00305e-06
-1.82412e-08
-5.99099e-06
1.68896e-07
-5.93396e-06
4.13817e-07
-5.80517e-06
7.63767e-07
-5.5565e-06
1.30865e-06
-5.1287e-06
2.21973e-06
-4.26377e-06
3.72564e-06
-2.54335e-06
5.74363e-06
7.09822e-06
-1.9797e-06
-2.33303e-06
-3.80983e-06
-2.16092e-06
-5.38281e-06
-1.92481e-06
-6.63077e-06
-1.56635e-06
-7.5641e-06
-1.21879e-06
-8.23208e-06
-9.19514e-07
-8.69863e-06
-6.76338e-07
-9.02464e-06
-4.80751e-07
-9.25204e-06
-3.2843e-07
-9.40817e-06
-2.08144e-07
-9.50505e-06
-1.01975e-07
-9.53569e-06
1.2399e-08
-9.4869e-06
1.20109e-07
-9.3271e-06
2.54017e-07
-9.01131e-06
4.47976e-07
-8.44913e-06
7.4647e-07
-7.48698e-06
1.25758e-06
-5.84296e-06
2.08162e-06
-3.36067e-06
3.26134e-06
3.73755e-06
-2.32732e-06
-5.70314e-09
-4.48318e-06
-5.0551e-09
-6.40842e-06
4.24502e-10
-7.98304e-06
8.26529e-09
-9.2169e-06
1.50777e-08
-1.01569e-05
2.04683e-08
-1.08555e-05
2.22368e-08
-1.13588e-05
2.25571e-08
-1.1708e-05
2.07962e-08
-1.19343e-05
1.81167e-08
-1.20502e-05
1.39249e-08
-1.20467e-05
8.92597e-09
-1.19317e-05
5.11805e-09
-1.1677e-05
-7.02945e-10
-1.12239e-05
-5.10848e-09
-1.04665e-05
-1.08938e-08
-9.19156e-06
-1.73776e-08
-7.08355e-06
-2.6394e-08
-3.78512e-06
-3.70934e-08
-4.75741e-08
-2.32263e-06
2.31693e-06
-4.47649e-06
2.1488e-06
-6.40094e-06
1.92488e-06
-7.97508e-06
1.58241e-06
-9.20705e-06
1.24705e-06
-1.01429e-05
9.56323e-07
-1.08382e-05
7.1752e-07
-1.13389e-05
5.23245e-07
-1.16864e-05
3.68294e-07
-1.19116e-05
2.43343e-07
-1.20286e-05
1.30964e-07
-1.20224e-05
2.63873e-09
-1.19056e-05
-1.11649e-07
-1.16514e-05
-2.54891e-07
-1.11988e-05
-4.57668e-07
-1.04431e-05
-7.66649e-07
-9.17079e-06
-1.28967e-06
-7.06696e-06
-2.13022e-06
-3.77504e-06
-3.32902e-06
-3.82261e-06
-1.97839e-06
4.29532e-06
-3.80939e-06
3.9798e-06
-5.38462e-06
3.5001e-06
-6.63404e-06
2.83183e-06
-7.56746e-06
2.18047e-06
-8.23201e-06
1.62087e-06
-8.69223e-06
1.17774e-06
-9.00889e-06
8.39903e-07
-9.2255e-06
5.84908e-07
-9.37016e-06
3.88005e-07
-9.45546e-06
2.16266e-07
-9.48412e-06
3.12998e-08
-9.43106e-06
-1.64712e-07
-9.26973e-06
-4.16222e-07
-8.9551e-06
-7.72299e-07
-8.39716e-06
-1.32458e-06
-7.44299e-06
-2.24384e-06
-5.81072e-06
-3.76249e-06
-3.34264e-06
-5.79709e-06
-7.16525e-06
-1.41157e-06
5.70689e-06
-2.68916e-06
5.2574e-06
-3.71194e-06
4.52288e-06
-4.47824e-06
3.59812e-06
-5.01829e-06
2.72052e-06
-5.38469e-06
1.98727e-06
-5.62512e-06
1.41818e-06
-5.77797e-06
9.92753e-07
-5.87015e-06
6.77086e-07
-5.92164e-06
4.39494e-07
-5.94617e-06
2.40795e-07
-5.95653e-06
4.16593e-08
-5.93996e-06
-1.81282e-07
-5.87999e-06
-4.76194e-07
-5.75007e-06
-9.02214e-07
-5.50329e-06
-1.57136e-06
-5.08168e-06
-2.66546e-06
-4.22991e-06
-4.61426e-06
-2.52735e-06
-7.49965e-06
-9.6926e-06
-7.74207e-07
6.48109e-06
-1.5211e-06
6.00429e-06
-2.08341e-06
5.08519e-06
-2.50074e-06
4.01546e-06
-2.78897e-06
3.00874e-06
-2.97961e-06
2.17791e-06
-3.09656e-06
1.53512e-06
-3.15837e-06
1.05456e-06
-3.18088e-06
6.99598e-07
-3.17471e-06
4.33324e-07
-3.14965e-06
2.15734e-07
-3.12119e-06
1.32037e-08
-3.08003e-06
-2.22445e-07
-3.02671e-06
-5.29515e-07
-2.95945e-06
-9.6947e-07
-2.85979e-06
-1.67103e-06
-2.72752e-06
-2.79773e-06
-2.37957e-06
-4.96221e-06
-1.76262e-06
-8.1166e-06
-1.14552e-05
-2.2856e-07
6.70965e-06
-4.36148e-07
6.21188e-06
-5.9505e-07
5.24409e-06
-7.06324e-07
4.12674e-06
-7.90839e-07
3.09326e-06
-8.51862e-07
2.23893e-06
-8.91535e-07
1.5748e-06
-9.13743e-07
1.07677e-06
-9.23732e-07
7.09587e-07
-9.25938e-07
4.35531e-07
-9.26507e-07
2.16303e-07
-9.30454e-07
1.71498e-08
-9.428e-07
-2.10099e-07
-9.61721e-07
-5.10594e-07
-9.88812e-07
-9.42379e-07
-1.01307e-06
-1.64676e-06
-1.02301e-06
-2.78779e-06
-9.65151e-07
-5.02007e-06
-8.67437e-07
-8.21432e-06
-1.23227e-05
3.90676e-07
6.31898e-06
6.14254e-07
5.9883e-06
8.22937e-07
5.03541e-06
9.87052e-07
3.96262e-06
1.0948e-06
2.98551e-06
1.1552e-06
2.17853e-06
1.18019e-06
1.5498e-06
1.1799e-06
1.07707e-06
1.16088e-06
7.28605e-07
1.12731e-06
4.69095e-07
1.07911e-06
2.64504e-07
1.01841e-06
7.78563e-08
9.31347e-07
-1.23041e-07
8.23181e-07
-4.02429e-07
6.7987e-07
-7.99068e-07
4.98153e-07
-1.46505e-06
3.37638e-07
-2.62728e-06
-8.02711e-08
-4.60216e-06
-1.68427e-07
-8.12616e-06
-1.24911e-05
7.91858e-07
5.52712e-06
1.52651e-06
5.25365e-06
2.15095e-06
4.41096e-06
2.61823e-06
3.49534e-06
2.93204e-06
2.67171e-06
3.11581e-06
1.99475e-06
3.20279e-06
1.46283e-06
3.22302e-06
1.05684e-06
3.19634e-06
7.55283e-07
3.13747e-06
5.27973e-07
3.05218e-06
3.4979e-07
2.94123e-06
1.88808e-07
2.79016e-06
2.8028e-08
2.61308e-06
-2.25353e-07
2.36624e-06
-5.52227e-07
2.06684e-06
-1.16565e-06
1.59658e-06
-2.15701e-06
1.07381e-06
-4.07939e-06
4.37449e-07
-7.4898e-06
-1.20536e-05
1.06552e-06
4.4616e-06
2.34931e-06
3.96987e-06
3.41857e-06
3.3417e-06
4.20201e-06
2.7119e-06
4.73639e-06
2.13733e-06
5.07789e-06
1.65325e-06
5.27012e-06
1.27059e-06
5.3539e-06
9.73055e-07
5.35706e-06
7.52122e-07
5.30862e-06
5.76412e-07
5.21576e-06
4.42651e-07
5.0965e-06
3.08072e-07
4.94445e-06
1.8008e-07
4.76015e-06
-4.1055e-08
4.44825e-06
-2.40329e-07
4.04925e-06
-7.66646e-07
3.36462e-06
-1.47238e-06
2.52297e-06
-3.23773e-06
1.15603e-06
-6.12287e-06
-1.08976e-05
1.15896e-06
3.30263e-06
2.80086e-06
2.32797e-06
4.31447e-06
1.82809e-06
5.49933e-06
1.52704e-06
6.37784e-06
1.25882e-06
7.01553e-06
1.01557e-06
7.47069e-06
8.15424e-07
7.78734e-06
6.56403e-07
8.00106e-06
5.38402e-07
8.13744e-06
4.40036e-07
8.21708e-06
3.63011e-07
8.24568e-06
2.79474e-07
8.22077e-06
2.04985e-07
8.09376e-06
8.59556e-08
7.87654e-06
-2.3107e-08
7.50399e-06
-3.94095e-07
6.81144e-06
-7.79836e-07
5.5725e-06
-1.9988e-06
3.05114e-06
-3.60151e-06
-7.84647e-06
3.30263e-06
5.6306e-06
7.45869e-06
8.98573e-06
1.02445e-05
1.12601e-05
1.20755e-05
1.27319e-05
1.32704e-05
1.37104e-05
1.40734e-05
1.43529e-05
1.45579e-05
1.46438e-05
1.46207e-05
1.42266e-05
1.34468e-05
1.1448e-05
7.84647e-06
)
;

boundaryField
{
    movingWall
    {
        type            calculated;
        value           uniform 0;
    }
    movingWallBottom
    {
        type            calculated;
        value           uniform 0;
    }
    fixedWalls
    {
        type            calculated;
        value           uniform 0;
    }
    frontAndBack
    {
        type            empty;
        value           nonuniform 0();
    }
}


// ************************************************************************* //
