/*--------------------------------*- C++ -*----------------------------------*\
| =========                 |                                                 |
| \\      /  F ield         | OpenFOAM: The Open Source CFD Toolbox           |
|  \\    /   O peration     | Version:  4.1                                   |
|   \\  /    A nd           | Web:      www.OpenFOAM.org                      |
|    \\/     M anipulation  |                                                 |
\*---------------------------------------------------------------------------*/
FoamFile
{
    version     2.0;
    format      ascii;
    class       volVectorField;
    location    "4";
    object      U;
}
// * * * * * * * * * * * * * * * * * * * * * * * * * * * * * * * * * * * * * //

dimensions      [0 1 -1 0 0 0 0];

internalField   nonuniform List<vector> 
400
(
(0.065519 -0.0992899 0)
(0.0799529 -0.0651508 0)
(0.128831 -0.045229 0)
(0.165571 -0.0354445 0)
(0.193577 -0.0292771 0)
(0.216304 -0.0246215 0)
(0.234202 -0.0209217 0)
(0.249231 -0.0179245 0)
(0.260693 -0.0154815 0)
(0.270615 -0.0134268 0)
(0.277747 -0.0116138 0)
(0.284251 -0.00995703 0)
(0.288042 -0.00824889 0)
(0.291299 -0.00646103 0)
(0.29092 -0.00416153 0)
(0.287216 -0.000622181 0)
(0.275934 0.00120396 0)
(0.256205 0.0123845 0)
(0.19249 0.0227732 0)
(0.174596 0.117434 0)
(0.0179897 -0.0546607 0)
(0.0350252 -0.0458774 0)
(0.0707428 -0.0402607 0)
(0.0976886 -0.0339696 0)
(0.118685 -0.0273478 0)
(0.134467 -0.0212157 0)
(0.145503 -0.0162094 0)
(0.153472 -0.0122821 0)
(0.158261 -0.00954473 0)
(0.161837 -0.0072935 0)
(0.163154 -0.00575484 0)
(0.164512 -0.0038327 0)
(0.163534 -0.00234386 0)
(0.162905 0.00126756 0)
(0.157628 0.00408422 0)
(0.15426 0.012784 0)
(0.138968 0.0229008 0)
(0.131602 0.0525515 0)
(0.068703 0.096584 0)
(0.0922168 0.167682 0)
(0.012807 -0.107651 0)
(0.0330065 -0.100712 0)
(0.0573077 -0.0857962 0)
(0.0758616 -0.0700388 0)
(0.0894406 -0.0548256 0)
(0.0986877 -0.0416764 0)
(0.10406 -0.0312453 0)
(0.106635 -0.0233038 0)
(0.107154 -0.0174169 0)
(0.106542 -0.0129607 0)
(0.104804 -0.00946709 0)
(0.102843 -0.00635356 0)
(0.0994837 -0.00316787 0)
(0.0969651 0.00115409 0)
(0.0903441 0.00694866 0)
(0.0864128 0.0187532 0)
(0.070348 0.0366912 0)
(0.070178 0.0755767 0)
(0.0142836 0.140054 0)
(0.0514295 0.227646 0)
(0.00803838 -0.122464 0)
(0.0231335 -0.116037 0)
(0.0354632 -0.096689 0)
(0.0472611 -0.0751461 0)
(0.0556853 -0.0563241 0)
(0.0608929 -0.0413155 0)
(0.0635146 -0.029678 0)
(0.064367 -0.0208581 0)
(0.0640874 -0.0143162 0)
(0.0630989 -0.0094219 0)
(0.0615392 -0.00558955 0)
(0.0595702 -0.00214067 0)
(0.056786 0.00153439 0)
(0.0537963 0.00664306 0)
(0.0488866 0.013828 0)
(0.0454371 0.0264249 0)
(0.0324646 0.0483071 0)
(0.0385505 0.0888315 0)
(-0.00669085 0.160239 0)
(0.0337131 0.256973 0)
(0.00320867 -0.133776 0)
(0.0103352 -0.125771 0)
(0.0129965 -0.105823 0)
(0.0176695 -0.0831803 0)
(0.0207333 -0.0622406 0)
(0.0226057 -0.0448974 0)
(0.0234543 -0.0315058 0)
(0.0235825 -0.0215267 0)
(0.0232548 -0.0142155 0)
(0.0226282 -0.0088232 0)
(0.0217384 -0.00459347 0)
(0.0206008 -0.000731826 0)
(0.0190612 0.00349286 0)
(0.0171798 0.00922809 0)
(0.0144347 0.0175025 0)
(0.0126875 0.0312283 0)
(0.00352723 0.0544521 0)
(0.0136252 0.0969699 0)
(-0.0203214 0.168405 0)
(0.0187426 0.258385 0)
(-0.00552892 -0.134732 0)
(-0.00600975 -0.123795 0)
(-0.0119815 -0.104298 0)
(-0.0137562 -0.0819553 0)
(-0.015304 -0.0612134 0)
(-0.0165464 -0.0441589 0)
(-0.0175119 -0.0309493 0)
(-0.0181908 -0.0211101 0)
(-0.0185779 -0.0138804 0)
(-0.0187864 -0.00848148 0)
(-0.0188773 -0.00412721 0)
(-0.0189904 -5.49657e-05 0)
(-0.0192239 0.00444975 0)
(-0.0195742 0.0105366 0)
(-0.0201425 0.0194306 0)
(-0.0204101 0.0335395 0)
(-0.024398 0.0561495 0)
(-0.0123064 0.0991051 0)
(-0.0338405 0.165427 0)
(0.00956452 0.245264 0)
(-0.0121818 -0.121734 0)
(-0.023377 -0.113785 0)
(-0.038523 -0.0970047 0)
(-0.0475124 -0.0765991 0)
(-0.053659 -0.0574467 0)
(-0.0580345 -0.041637 0)
(-0.060926 -0.0294063 0)
(-0.0627663 -0.0202749 0)
(-0.0636779 -0.0135913 0)
(-0.0639104 -0.00860125 0)
(-0.0637172 -0.00447542 0)
(-0.0632922 -0.000511025 0)
(-0.0627387 0.00403976 0)
(-0.0619742 0.00999893 0)
(-0.0613374 0.0181724 0)
(-0.0605293 0.0312479 0)
(-0.0591499 0.0534772 0)
(-0.0473993 0.0963843 0)
(-0.0518666 0.160188 0)
(-0.00560811 0.21785 0)
(-0.0210861 -0.0995129 0)
(-0.0417948 -0.0923392 0)
(-0.0671315 -0.0803002 0)
(-0.0845917 -0.0642161 0)
(-0.0962405 -0.0489084 0)
(-0.104722 -0.035878 0)
(-0.110307 -0.0256669 0)
(-0.114311 -0.0180311 0)
(-0.116812 -0.0123038 0)
(-0.118411 -0.0079873 0)
(-0.119386 -0.00436459 0)
(-0.119964 -0.000683479 0)
(-0.120369 0.00373224 0)
(-0.120306 0.00951969 0)
(-0.11975 0.0180489 0)
(-0.116921 0.0314413 0)
(-0.10945 0.0535726 0)
(-0.0918531 0.0912326 0)
(-0.069678 0.142024 0)
(-0.0185415 0.177389 0)
(-0.0277923 -0.064608 0)
(-0.0587665 -0.0606465 0)
(-0.0955061 -0.0532813 0)
(-0.124126 -0.0426466 0)
(-0.144064 -0.0325374 0)
(-0.159514 -0.0242364 0)
(-0.169652 -0.0177035 0)
(-0.177429 -0.0125694 0)
(-0.182608 -0.00863422 0)
(-0.186667 -0.00552373 0)
(-0.189101 -0.00274648 0)
(-0.190809 0.000258798 0)
(-0.191552 0.00387341 0)
(-0.190694 0.00843328 0)
(-0.187377 0.0149032 0)
(-0.179207 0.0250447 0)
(-0.162212 0.0419539 0)
(-0.132058 0.0685835 0)
(-0.0827159 0.103046 0)
(-0.0457922 0.118698 0)
(-0.03225 -0.0229893 0)
(-0.0686256 -0.0213317 0)
(-0.112488 -0.0191878 0)
(-0.148927 -0.0158682 0)
(-0.174388 -0.0126814 0)
(-0.195388 -0.00944219 0)
(-0.210732 -0.00666409 0)
(-0.222593 -0.00449669 0)
(-0.230747 -0.00285922 0)
(-0.236655 -0.00157902 0)
(-0.24003 -0.000478458 0)
(-0.241664 0.000576052 0)
(-0.241746 0.00207421 0)
(-0.239666 0.00369864 0)
(-0.233978 0.00628376 0)
(-0.221373 0.0101888 0)
(-0.197638 0.0168783 0)
(-0.158572 0.0270372 0)
(-0.102256 0.0399314 0)
(-0.0505329 0.0444452 0)
(-0.0321584 0.0227305 0)
(-0.068506 0.0211166 0)
(-0.11233 0.0192054 0)
(-0.148789 0.0162026 0)
(-0.174241 0.0132628 0)
(-0.195139 0.0102319 0)
(-0.210423 0.00752806 0)
(-0.22222 0.00537768 0)
(-0.23033 0.00367634 0)
(-0.236212 0.00229194 0)
(-0.239569 0.00104059 0)
(-0.241241 -0.000207942 0)
(-0.241203 -0.00188853 0)
(-0.239168 -0.00374068 0)
(-0.233442 -0.00653719 0)
(-0.220896 -0.010711 0)
(-0.197193 -0.0177009 0)
(-0.158222 -0.0282665 0)
(-0.101994 -0.0416094 0)
(-0.0502082 -0.0465673 0)
(-0.0277518 0.0642816 0)
(-0.0587242 0.0604162 0)
(-0.0955056 0.0532985 0)
(-0.124218 0.0429729 0)
(-0.144139 0.0330965 0)
(-0.159578 0.0249103 0)
(-0.169609 0.0184432 0)
(-0.177229 0.0133134 0)
(-0.182187 0.00931597 0)
(-0.186022 0.00610773 0)
(-0.188237 0.00320785 0)
(-0.189763 5.96967e-05 0)
(-0.190451 -0.00370732 0)
(-0.189519 -0.00844523 0)
(-0.186215 -0.0150749 0)
(-0.17809 -0.0253954 0)
(-0.161241 -0.0425102 0)
(-0.131285 -0.0694329 0)
(-0.0823592 -0.104245 0)
(-0.0452507 -0.120127 0)
(-0.0210772 0.0991738 0)
(-0.0418157 0.0921287 0)
(-0.0672207 0.0803594 0)
(-0.0847538 0.0645562 0)
(-0.0963736 0.0494325 0)
(-0.104796 0.0364842 0)
(-0.110251 0.0262799 0)
(-0.114104 0.0185923 0)
(-0.116446 0.0127809 0)
(-0.117869 0.00835672 0)
(-0.118683 0.00461106 0)
(-0.119109 0.000822285 0)
(-0.119377 -0.00368427 0)
(-0.119228 -0.00955927 0)
(-0.118613 -0.0181631 0)
(-0.115793 -0.0316542 0)
(-0.108421 -0.053885 0)
(-0.0909927 -0.0917439 0)
(-0.0693533 -0.142852 0)
(-0.0182218 -0.178564 0)
(-0.0121877 0.121413 0)
(-0.0234207 0.113619 0)
(-0.038616 0.0971109 0)
(-0.0476343 0.076952 0)
(-0.0537268 0.0579383 0)
(-0.0580285 0.0421658 0)
(-0.0608231 0.0299143 0)
(-0.0625644 0.0207214 0)
(-0.0633791 0.0139523 0)
(-0.0635289 0.008863 0)
(-0.0632639 0.00463332 0)
(-0.0627769 0.00057069 0)
(-0.0621695 -0.00408118 0)
(-0.0613615 -0.0101426 0)
(-0.0606784 -0.0184048 0)
(-0.0598325 -0.0315396 0)
(-0.0584764 -0.0537973 0)
(-0.0466858 -0.0967084 0)
(-0.0514769 -0.160591 0)
(-0.00540636 -0.218619 0)
(-0.0055394 0.13444 0)
(-0.00604815 0.12367 0)
(-0.0120384 0.104417 0)
(-0.0138042 0.0822783 0)
(-0.0152917 0.0616423 0)
(-0.0164607 0.044613 0)
(-0.0173466 0.031378 0)
(-0.0179517 0.0214812 0)
(-0.018273 0.0141744 0)
(-0.0184315 0.0086888 0)
(-0.0184849 0.00424517 0)
(-0.0185733 8.56595e-05 0)
(-0.0187943 -0.00450702 0)
(-0.0191413 -0.0106785 0)
(-0.0197116 -0.0196545 0)
(-0.0199798 -0.0338554 0)
(-0.0240185 -0.0565666 0)
(-0.0118909 -0.0995384 0)
(-0.0335886 -0.16585 0)
(0.00967376 -0.245844 0)
(0.00319715 0.133512 0)
(0.0103017 0.125664 0)
(0.0129686 0.105941 0)
(0.0176779 0.0834713 0)
(0.0208105 0.0626197 0)
(0.0227622 0.0452919 0)
(0.0236893 0.0318714 0)
(0.0238865 0.0218386 0)
(0.0236144 0.0144608 0)
(0.0230285 0.00899508 0)
(0.0221636 0.00468913 0)
(0.0210374 0.000751631 0)
(0.0194931 -0.00354702 0)
(0.0175995 -0.00935901 0)
(0.0148285 -0.0177054 0)
(0.0130539 -0.031495 0)
(0.00383766 -0.0547618 0)
(0.0139549 -0.0972459 0)
(-0.0201313 -0.168683 0)
(0.0188291 -0.258752 0)
(0.00802382 0.122238 0)
(0.0231017 0.115928 0)
(0.0354381 0.0967736 0)
(0.0472841 0.075368 0)
(0.0557898 0.0566125 0)
(0.0610916 0.0416166 0)
(0.0638035 0.0299605 0)
(0.0647317 0.0211041 0)
(0.0645103 0.0145131 0)
(0.0635631 0.00956136 0)
(0.0620258 0.00566854 0)
(0.0600657 0.00215624 0)
(0.0572659 -0.00157978 0)
(0.0542546 -0.00674823 0)
(0.0492943 -0.0139926 0)
(0.0458086 -0.0266472 0)
(0.0327487 -0.0485593 0)
(0.0387813 -0.0891058 0)
(-0.00652186 -0.160545 0)
(0.033772 -0.257168 0)
(0.0127699 0.107468 0)
(0.0329423 0.100604 0)
(0.0572434 0.0858334 0)
(0.0758596 0.070179 0)
(0.0895253 0.0550338 0)
(0.098876 0.0419055 0)
(0.104353 0.0314641 0)
(0.107021 0.0234952 0)
(0.10761 0.0175735 0)
(0.10705 0.0130775 0)
(0.105333 0.00954335 0)
(0.103384 0.00638485 0)
(0.100004 0.00315596 0)
(0.0974666 -0.00121649 0)
(0.090772 -0.0070536 0)
(0.0867997 -0.0189057 0)
(0.0706323 -0.0368475 0)
(0.0703946 -0.0757537 0)
(0.0143992 -0.140179 0)
(0.0514879 -0.22777 0)
(0.0179215 0.0545534 0)
(0.0349168 0.0457867 0)
(0.0706277 0.0402524 0)
(0.0976086 0.0340274 0)
(0.118675 0.0274418 0)
(0.134549 0.0213229 0)
(0.145676 0.0163143 0)
(0.153742 0.0123714 0)
(0.158603 0.00961933 0)
(0.162247 0.00734642 0)
(0.163596 0.00579358 0)
(0.164984 0.00384434 0)
(0.163997 0.00234112 0)
(0.163355 -0.00130717 0)
(0.158027 -0.0041293 0)
(0.154619 -0.0128707 0)
(0.139237 -0.0229734 0)
(0.131799 -0.0526379 0)
(0.0688119 -0.0966601 0)
(0.0922626 -0.167735 0)
(0.0654683 0.0992732 0)
(0.0798793 0.0651248 0)
(0.128716 0.0452069 0)
(0.165461 0.035438 0)
(0.193495 0.029283 0)
(0.216282 0.024632 0)
(0.234235 0.0209363 0)
(0.249335 0.0179384 0)
(0.260848 0.0154985 0)
(0.270822 0.0134413 0)
(0.277979 0.0116314 0)
(0.284511 0.00996864 0)
(0.288301 0.00826235 0)
(0.29156 0.00646389 0)
(0.291152 0.00416737 0)
(0.28742 0.000612755 0)
(0.27609 -0.00120409 0)
(0.256316 -0.0124056 0)
(0.192531 -0.0227761 0)
(0.174607 -0.11743 0)
)
;

boundaryField
{
    movingWall
    {
        type            fixedValue;
        value           uniform (1 0 0);
    }
    movingWallBottom
    {
        type            fixedValue;
        value           uniform (1 0 0);
    }
    fixedWalls
    {
        type            noSlip;
    }
    frontAndBack
    {
        type            empty;
    }
}


// ************************************************************************* //
