/*--------------------------------*- C++ -*----------------------------------*\
| =========                 |                                                 |
| \\      /  F ield         | OpenFOAM: The Open Source CFD Toolbox           |
|  \\    /   O peration     | Version:  4.1                                   |
|   \\  /    A nd           | Web:      www.OpenFOAM.org                      |
|    \\/     M anipulation  |                                                 |
\*---------------------------------------------------------------------------*/
FoamFile
{
    version     2.0;
    format      ascii;
    class       volScalarField;
    location    "2.5";
    object      epsilon;
}
// * * * * * * * * * * * * * * * * * * * * * * * * * * * * * * * * * * * * * //

dimensions      [0 2 -3 0 0 0 0];

internalField   nonuniform List<scalar> 
400
(
0.0386455
0.0708611
0.0927441
0.10464
0.112572
0.118578
0.123611
0.128073
0.131829
0.135216
0.137955
0.14055
0.142815
0.145231
0.148148
0.15121
0.154549
0.15916
0.174899
0.151937
0.00731336
0.00615351
0.00676771
0.00746121
0.00809639
0.00879668
0.00957571
0.0104944
0.0114647
0.0125736
0.0136302
0.0148799
0.015941
0.0174698
0.0185359
0.0216953
0.027567
0.0418033
0.0727215
0.111672
0.00761527
0.00371465
0.00252205
0.00211584
0.00197769
0.00199847
0.00209295
0.00230141
0.00258574
0.0029404
0.00330564
0.00371008
0.00406131
0.00444116
0.00470433
0.00534718
0.00696159
0.013103
0.0333922
0.0811311
0.00828446
0.00315484
0.00196143
0.00164918
0.00156544
0.00160788
0.00173446
0.00195183
0.00219905
0.00245054
0.00264389
0.00277467
0.00278262
0.00276481
0.00265002
0.00266399
0.00318841
0.00668799
0.0213623
0.0658041
0.00850715
0.00294437
0.00190435
0.00168624
0.00174516
0.00193472
0.0021874
0.00243694
0.00264016
0.00276718
0.00277003
0.00268112
0.00245663
0.00217582
0.00185643
0.00167957
0.00196968
0.00477565
0.017218
0.0563378
0.00852593
0.002914
0.00216674
0.00205132
0.00218958
0.0024563
0.00269979
0.00289222
0.00298488
0.00297274
0.00280837
0.00252073
0.00213492
0.00172134
0.0014042
0.00132699
0.00189681
0.00487099
0.0168253
0.0490628
0.00841919
0.00344157
0.00255604
0.00242444
0.00259819
0.00292841
0.00315924
0.0032706
0.00329471
0.00316459
0.00288947
0.00252023
0.00210265
0.00173156
0.00156825
0.00160959
0.002449
0.00584224
0.0176048
0.0425237
0.00839388
0.00396641
0.00287621
0.00261684
0.00279384
0.00316158
0.00340981
0.00353191
0.00356389
0.00342971
0.00316717
0.00287753
0.0026422
0.00254126
0.00253749
0.00295308
0.00440547
0.00855045
0.0196285
0.0357792
0.00832221
0.0045116
0.00305419
0.00261762
0.00256818
0.00278082
0.00302667
0.00322825
0.00341105
0.00355558
0.00370749
0.00389877
0.00417706
0.00461029
0.00528912
0.0065178
0.00879089
0.0129807
0.0200682
0.0278683
0.00807971
0.00479708
0.00312846
0.0025097
0.00236345
0.0023725
0.00258485
0.00281513
0.00313866
0.00352125
0.00399609
0.0045879
0.00533236
0.00631261
0.00761257
0.00941504
0.0118775
0.0150091
0.0165932
0.0154328
0.00807024
0.00480054
0.0031285
0.00250791
0.00236065
0.00236779
0.00258047
0.00281103
0.00313528
0.00351882
0.00399435
0.00458706
0.00533227
0.00631092
0.00761123
0.00941334
0.0118806
0.0150257
0.0166282
0.0155132
0.00830903
0.00451978
0.00305545
0.00261332
0.00256058
0.00276539
0.0030108
0.00321177
0.00339706
0.00354564
0.00370033
0.00389095
0.00416453
0.00459354
0.00526724
0.00648846
0.00875773
0.0129542
0.020086
0.0279615
0.008382
0.00397541
0.00288074
0.00261915
0.00279258
0.0031554
0.00339906
0.00351798
0.00354829
0.00341196
0.00314955
0.00286057
0.00262395
0.00252228
0.00251722
0.00292847
0.00437313
0.00850572
0.0195992
0.0358306
0.00840599
0.00345186
0.00256437
0.00243223
0.00260245
0.00293102
0.00315781
0.00326475
0.00328578
0.00314885
0.00287153
0.0025005
0.00208421
0.00171583
0.00155346
0.00159412
0.00242888
0.00581077
0.0175759
0.0425666
0.00850986
0.00291985
0.00217538
0.00206086
0.00220054
0.00246699
0.00270536
0.002893
0.00298202
0.00296432
0.0027963
0.00250661
0.00212083
0.00170877
0.00139298
0.00131579
0.00188212
0.00484509
0.0167966
0.0490876
0.00849141
0.00294832
0.00190956
0.00169416
0.00175506
0.00194634
0.00219754
0.00244474
0.00264479
0.00276696
0.00276649
0.00267492
0.00244756
0.00216627
0.00184695
0.00166948
0.00195585
0.00475164
0.0171796
0.0563477
0.00826981
0.00315642
0.00196539
0.00165386
0.00157225
0.00161567
0.00174312
0.00195989
0.00220566
0.00245478
0.00264529
0.00277259
0.00277615
0.00275691
0.00263995
0.00265301
0.00317375
0.00666472
0.0213392
0.0657941
0.00760193
0.003713
0.00252357
0.00211911
0.00198307
0.00200444
0.00209938
0.00230772
0.00258968
0.00294072
0.00330088
0.00369943
0.00404508
0.00441974
0.00468128
0.00532331
0.00693645
0.0130758
0.0333698
0.0811042
0.00730262
0.00615228
0.00676989
0.00746795
0.0081043
0.00880318
0.00957715
0.0104892
0.01145
0.012548
0.0135926
0.0148303
0.0158805
0.0174002
0.0184622
0.021627
0.0275026
0.0417473
0.0726767
0.111604
0.0386471
0.0708897
0.0927906
0.10471
0.112639
0.118626
0.123624
0.128046
0.131758
0.135104
0.137807
0.140375
0.142622
0.145029
0.147955
0.151018
0.154366
0.158985
0.174747
0.151832
)
;

boundaryField
{
    movingWall
    {
        Cmu             0.09;
        kappa           0.41;
        E               9.8;
        type            epsilonWallFunction;
        value           nonuniform List<scalar> 
20
(
0.0386471
0.0708897
0.0927906
0.10471
0.112639
0.118626
0.123624
0.128046
0.131758
0.135104
0.137807
0.140375
0.142622
0.145029
0.147955
0.151018
0.154366
0.158985
0.174747
0.151832
)
;
    }
    movingWallBottom
    {
        Cmu             0.09;
        kappa           0.41;
        E               9.8;
        type            epsilonWallFunction;
        value           nonuniform List<scalar> 
20
(
0.0386455
0.0708611
0.0927441
0.10464
0.112572
0.118578
0.123611
0.128073
0.131829
0.135216
0.137955
0.14055
0.142815
0.145231
0.148148
0.15121
0.154549
0.15916
0.174899
0.151937
)
;
    }
    fixedWalls
    {
        Cmu             0.09;
        kappa           0.41;
        E               9.8;
        type            epsilonWallFunction;
        value           nonuniform List<scalar> 
40
(
0.0386455
0.00731336
0.00761527
0.00828446
0.00850715
0.00852593
0.00841919
0.00839388
0.00832221
0.00807971
0.00807024
0.00830903
0.008382
0.00840599
0.00850986
0.00849141
0.00826981
0.00760193
0.00730262
0.0386471
0.151937
0.111672
0.0811311
0.0658041
0.0563378
0.0490628
0.0425237
0.0357792
0.0278683
0.0154328
0.0155132
0.0279615
0.0358306
0.0425666
0.0490876
0.0563477
0.0657941
0.0811042
0.111604
0.151832
)
;
    }
    frontAndBack
    {
        type            empty;
    }
}


// ************************************************************************* //
