/*--------------------------------*- C++ -*----------------------------------*\
| =========                 |                                                 |
| \\      /  F ield         | OpenFOAM: The Open Source CFD Toolbox           |
|  \\    /   O peration     | Version:  4.1                                   |
|   \\  /    A nd           | Web:      www.OpenFOAM.org                      |
|    \\/     M anipulation  |                                                 |
\*---------------------------------------------------------------------------*/
FoamFile
{
    version     2.0;
    format      ascii;
    class       volScalarField;
    location    "2.5";
    object      k;
}
// * * * * * * * * * * * * * * * * * * * * * * * * * * * * * * * * * * * * * //

dimensions      [0 2 -2 0 0 0 0];

internalField   nonuniform List<scalar> 
400
(
0.00387311
0.00579972
0.00693897
0.00751846
0.0078929
0.00817071
0.00839998
0.00860095
0.00876842
0.00891825
0.00903866
0.00915213
0.00925076
0.00935529
0.00948095
0.00961155
0.00975306
0.00994662
0.0105933
0.00964566
0.00127897
0.00126482
0.00138314
0.00145094
0.0014837
0.00151805
0.00156947
0.00164333
0.0017308
0.00183912
0.00194755
0.00207843
0.00218933
0.00234868
0.00245466
0.00270603
0.00309364
0.00403372
0.00613706
0.00785676
0.00131442
0.00111921
0.00109836
0.00106366
0.00104628
0.00105427
0.0010773
0.00112502
0.00119181
0.00127082
0.00135033
0.00141614
0.00146837
0.00148326
0.00146462
0.00144415
0.00148993
0.00195456
0.00373144
0.0063504
0.00138965
0.00109936
0.00103075
0.000999078
0.00100926
0.00105662
0.0011596
0.00128985
0.00142352
0.00153662
0.00160616
0.00161551
0.00158482
0.00150512
0.00135109
0.00116413
0.00107214
0.00137224
0.00285046
0.00552369
0.00141422
0.0011952
0.0010831
0.00105481
0.00111505
0.00125359
0.00141389
0.00156905
0.00168896
0.00176065
0.00176774
0.00171538
0.00158487
0.00140959
0.00118034
0.000964216
0.000860648
0.00116352
0.00256055
0.00498091
0.00141621
0.00131552
0.00118352
0.0011597
0.00126363
0.00142357
0.00158189
0.00170923
0.00179306
0.00181849
0.00176522
0.00163418
0.00143917
0.00119571
0.000926448
0.000765578
0.00074541
0.00117005
0.00249978
0.00454276
0.00140426
0.00148723
0.00128041
0.00123533
0.00133169
0.0014928
0.00164184
0.00173266
0.00176389
0.00173851
0.0016236
0.00144518
0.00121881
0.000974261
0.000810756
0.000753514
0.000793396
0.0012845
0.00255449
0.00412992
0.00140143
0.00166388
0.00132535
0.00126444
0.00134353
0.00146912
0.00154018
0.00156846
0.00156464
0.00147296
0.00134867
0.00119374
0.00104828
0.000945407
0.000898655
0.000889431
0.00106918
0.00162315
0.00273061
0.00368102
0.00139341
0.00184798
0.00130368
0.00113116
0.00110508
0.00114084
0.00118847
0.00121112
0.00121886
0.00121483
0.00119986
0.00119486
0.0011998
0.00123989
0.00131467
0.00146156
0.00174883
0.00220067
0.00276494
0.00311638
0.00136625
0.00194181
0.00131124
0.00107172
0.000998928
0.000983962
0.000996997
0.00104255
0.00108585
0.0011527
0.00122134
0.0013142
0.00141777
0.00155378
0.00171632
0.00192807
0.0021811
0.00240458
0.00249609
0.00210168
0.00136517
0.00194217
0.00131104
0.00107087
0.000997614
0.000982444
0.000995444
0.00104129
0.00108486
0.00115213
0.00122096
0.00131409
0.00141786
0.00155359
0.00171629
0.001928
0.00218182
0.00240737
0.00250019
0.00210902
0.00139193
0.00184902
0.00130298
0.00112873
0.0011013
0.00113405
0.00118149
0.00120447
0.00121258
0.00121109
0.00119711
0.00119259
0.00119765
0.0012368
0.00131132
0.00145725
0.00174471
0.00219809
0.00276725
0.00312335
0.0014001
0.00166512
0.00132461
0.00126193
0.00133748
0.00146017
0.00153032
0.00155771
0.00155309
0.00146242
0.00134016
0.00118681
0.00104286
0.000940692
0.000894151
0.00088501
0.00106438
0.00161815
0.00272868
0.00368454
0.00140278
0.00148841
0.00127972
0.00123327
0.00132704
0.00148773
0.00163549
0.00172466
0.00175507
0.00172932
0.0016144
0.00143654
0.00121149
0.000968657
0.00080623
0.000749394
0.000789632
0.00128029
0.00255214
0.00413269
0.00141442
0.00131593
0.00118288
0.00115832
0.00126057
0.00141973
0.00157726
0.00170357
0.00178692
0.00181203
0.0017585
0.00162783
0.00143358
0.00119109
0.000922645
0.000762121
0.000742006
0.00116601
0.00249712
0.00454428
0.00141247
0.00119532
0.0010829
0.00105404
0.00111391
0.00125167
0.00141182
0.00156663
0.00168553
0.00175689
0.00176368
0.00171151
0.00158125
0.00140628
0.00117741
0.000961297
0.000857283
0.00115941
0.002557
0.00498148
0.00138801
0.0010987
0.00103066
0.000999388
0.00100964
0.00105681
0.00115927
0.00128904
0.00142239
0.00153522
0.00160428
0.0016128
0.00158199
0.001502
0.00134792
0.00116068
0.00106822
0.00136797
0.00284734
0.00552311
0.0013129
0.00111831
0.00109819
0.0010643
0.00104721
0.00105527
0.00107818
0.00112546
0.00119133
0.00126928
0.00134759
0.001412
0.00146326
0.00147704
0.00145798
0.00143772
0.00148375
0.00194914
0.00372885
0.00634898
0.00127775
0.00126391
0.00138287
0.00145198
0.00148511
0.00151941
0.00157018
0.00164314
0.00172935
0.00183619
0.00194298
0.00207211
0.00218144
0.0023393
0.00244464
0.00269577
0.00308434
0.0040266
0.00613359
0.00785357
0.00387321
0.00580125
0.00694124
0.00752182
0.00789609
0.00817298
0.00840072
0.00859991
0.00876549
0.00891355
0.00903242
0.00914472
0.00924259
0.00934678
0.0094728
0.00960351
0.00974543
0.00993937
0.0105872
0.00964124
)
;

boundaryField
{
    movingWall
    {
        type            kqRWallFunction;
        value           nonuniform List<scalar> 
20
(
0.00387321
0.00580125
0.00694124
0.00752182
0.00789609
0.00817298
0.00840072
0.00859991
0.00876549
0.00891355
0.00903242
0.00914472
0.00924259
0.00934678
0.0094728
0.00960351
0.00974543
0.00993937
0.0105872
0.00964124
)
;
    }
    movingWallBottom
    {
        type            kqRWallFunction;
        value           nonuniform List<scalar> 
20
(
0.00387311
0.00579972
0.00693897
0.00751846
0.0078929
0.00817071
0.00839998
0.00860095
0.00876842
0.00891825
0.00903866
0.00915213
0.00925076
0.00935529
0.00948095
0.00961155
0.00975306
0.00994662
0.0105933
0.00964566
)
;
    }
    fixedWalls
    {
        type            kqRWallFunction;
        value           nonuniform List<scalar> 
40
(
0.00387311
0.00127897
0.00131442
0.00138965
0.00141422
0.00141621
0.00140426
0.00140143
0.00139341
0.00136625
0.00136517
0.00139193
0.0014001
0.00140278
0.00141442
0.00141247
0.00138801
0.0013129
0.00127775
0.00387321
0.00964566
0.00785676
0.0063504
0.00552369
0.00498091
0.00454276
0.00412992
0.00368102
0.00311638
0.00210168
0.00210902
0.00312335
0.00368454
0.00413269
0.00454428
0.00498148
0.00552311
0.00634898
0.00785357
0.00964124
)
;
    }
    frontAndBack
    {
        type            empty;
    }
}


// ************************************************************************* //
