/*--------------------------------*- C++ -*----------------------------------*\
| =========                 |                                                 |
| \\      /  F ield         | OpenFOAM: The Open Source CFD Toolbox           |
|  \\    /   O peration     | Version:  4.1                                   |
|   \\  /    A nd           | Web:      www.OpenFOAM.org                      |
|    \\/     M anipulation  |                                                 |
\*---------------------------------------------------------------------------*/
FoamFile
{
    version     2.0;
    format      ascii;
    class       volScalarField;
    location    "2.5";
    object      nut;
}
// * * * * * * * * * * * * * * * * * * * * * * * * * * * * * * * * * * * * * //

dimensions      [0 2 -1 0 0 0 0];

internalField   nonuniform List<scalar> 
400
(
3.49352e-05
4.27217e-05
4.67246e-05
4.86189e-05
4.98066e-05
5.06707e-05
5.13739e-05
5.19849e-05
5.24897e-05
5.29388e-05
5.32985e-05
5.36359e-05
5.39291e-05
5.42374e-05
5.46072e-05
5.49855e-05
5.53936e-05
5.59446e-05
5.77453e-05
5.51117e-05
2.01302e-05
2.3398e-05
2.5441e-05
2.53941e-05
2.44705e-05
2.35775e-05
2.31515e-05
2.31599e-05
2.35165e-05
2.42103e-05
2.50448e-05
2.61284e-05
2.70613e-05
2.84186e-05
2.92559e-05
3.03768e-05
3.12459e-05
3.50302e-05
4.66123e-05
4.97493e-05
2.04186e-05
3.03492e-05
4.30506e-05
4.81243e-05
4.9817e-05
5.0055e-05
4.99063e-05
4.94961e-05
4.9439e-05
4.94319e-05
4.96443e-05
4.86488e-05
4.77804e-05
4.45843e-05
4.10388e-05
3.5103e-05
2.8699e-05
2.62403e-05
3.75275e-05
4.4736e-05
2.09792e-05
3.44783e-05
4.875e-05
5.4472e-05
5.85618e-05
6.24927e-05
6.97743e-05
7.67144e-05
8.29348e-05
8.67192e-05
8.78166e-05
8.46544e-05
8.12363e-05
7.37432e-05
6.1996e-05
4.57838e-05
3.24467e-05
2.53401e-05
3.42314e-05
4.173e-05
2.11589e-05
4.3665e-05
5.54413e-05
5.93844e-05
6.41205e-05
7.31027e-05
8.2252e-05
9.09222e-05
9.72415e-05
0.000100821
0.00010153
9.87746e-05
9.20216e-05
8.21878e-05
6.75421e-05
4.98188e-05
3.38453e-05
2.55127e-05
3.42709e-05
3.96333e-05
2.11717e-05
5.34504e-05
5.81816e-05
5.90068e-05
6.56328e-05
7.42538e-05
8.34189e-05
9.09101e-05
9.69402e-05
0.000100117
9.98591e-05
9.53494e-05
8.7314e-05
7.47527e-05
5.5012e-05
3.97514e-05
2.63638e-05
2.52948e-05
3.34259e-05
3.78555e-05
2.10799e-05
5.78415e-05
5.77258e-05
5.665e-05
6.14297e-05
6.8488e-05
7.67933e-05
8.26123e-05
8.49898e-05
8.59565e-05
8.21071e-05
7.45837e-05
6.35836e-05
4.9335e-05
3.7723e-05
3.17475e-05
2.31331e-05
2.54176e-05
3.33594e-05
3.60989e-05
2.10583e-05
6.28189e-05
5.49646e-05
5.49872e-05
5.81479e-05
6.14402e-05
6.26115e-05
6.26876e-05
6.18226e-05
5.69338e-05
5.16868e-05
4.457e-05
3.74313e-05
3.16542e-05
2.86434e-05
2.41097e-05
2.33535e-05
2.77315e-05
3.41881e-05
3.40839e-05
2.09972e-05
6.81252e-05
5.0083e-05
4.39933e-05
4.27962e-05
4.21228e-05
4.20007e-05
4.08932e-05
3.91979e-05
3.73559e-05
3.49481e-05
3.29569e-05
3.10163e-05
3.00108e-05
2.941e-05
2.94966e-05
3.13115e-05
3.35779e-05
3.4285e-05
3.13641e-05
2.07925e-05
7.07425e-05
4.94625e-05
4.11896e-05
3.79984e-05
3.67275e-05
3.46094e-05
3.47485e-05
3.38095e-05
3.39609e-05
3.35956e-05
3.38806e-05
3.39263e-05
3.44202e-05
3.48265e-05
3.55359e-05
3.60471e-05
3.46709e-05
3.37933e-05
2.57592e-05
2.07842e-05
7.07178e-05
4.94466e-05
4.11533e-05
3.79433e-05
3.66872e-05
3.45603e-05
3.47154e-05
3.37841e-05
3.39507e-05
3.35893e-05
3.38814e-05
3.39312e-05
3.44209e-05
3.48312e-05
3.55395e-05
3.60615e-05
3.47131e-05
3.38331e-05
2.58049e-05
2.09858e-05
6.80781e-05
5.0008e-05
4.3876e-05
4.26299e-05
4.18552e-05
4.17272e-05
4.06527e-05
3.89549e-05
3.72308e-05
3.48554e-05
3.2898e-05
3.09984e-05
2.99707e-05
2.93816e-05
2.94557e-05
3.12823e-05
3.35678e-05
3.4312e-05
3.13995e-05
2.10481e-05
6.27702e-05
5.48171e-05
5.47204e-05
5.76512e-05
6.08129e-05
6.2008e-05
6.20761e-05
6.11806e-05
5.64135e-05
5.13225e-05
4.43152e-05
3.73027e-05
3.1575e-05
2.85853e-05
2.40713e-05
2.33153e-05
2.77057e-05
3.41908e-05
3.41001e-05
2.10686e-05
5.77611e-05
5.74769e-05
5.628e-05
6.0901e-05
6.79629e-05
7.62343e-05
8.19976e-05
8.4371e-05
8.54754e-05
8.16865e-05
7.42765e-05
6.3378e-05
4.92161e-05
3.76584e-05
3.17059e-05
2.31039e-05
2.53876e-05
3.3353e-05
3.61109e-05
2.11582e-05
5.33757e-05
5.78879e-05
5.85933e-05
6.49901e-05
7.35337e-05
8.27602e-05
9.02845e-05
9.63703e-05
9.96891e-05
9.95276e-05
9.51427e-05
8.72124e-05
7.47219e-05
5.50004e-05
3.97288e-05
2.63275e-05
2.52548e-05
3.34117e-05
3.78617e-05
2.11457e-05
4.3615e-05
5.52696e-05
5.90206e-05
6.36286e-05
7.24448e-05
8.16326e-05
9.03529e-05
9.66765e-05
0.000100399
0.000101194
9.85572e-05
9.19411e-05
8.21627e-05
6.75531e-05
4.98167e-05
3.38185e-05
2.54607e-05
3.42524e-05
3.96354e-05
2.09669e-05
3.44196e-05
4.86437e-05
5.43517e-05
5.83521e-05
6.22133e-05
6.93885e-05
7.63027e-05
8.25541e-05
8.64117e-05
8.7565e-05
8.44337e-05
8.11348e-05
7.36482e-05
6.19406e-05
4.57011e-05
3.23584e-05
2.52704e-05
3.41934e-05
4.17276e-05
2.04071e-05
3.03141e-05
4.30111e-05
4.8108e-05
4.97707e-05
5.00011e-05
4.98349e-05
4.93992e-05
4.93239e-05
4.93068e-05
4.95137e-05
4.85038e-05
4.76382e-05
4.44254e-05
4.08675e-05
3.49472e-05
2.85644e-05
2.61492e-05
3.75006e-05
4.47309e-05
2.01212e-05
2.3369e-05
2.5423e-05
2.54074e-05
2.4493e-05
2.36021e-05
2.3169e-05
2.3166e-05
2.35073e-05
2.41825e-05
2.49964e-05
2.60567e-05
2.69689e-05
2.83048e-05
2.91333e-05
3.0242e-05
3.1131e-05
3.49535e-05
4.65883e-05
4.97391e-05
3.49357e-05
4.2727e-05
4.67318e-05
4.86296e-05
4.9817e-05
5.06786e-05
5.13775e-05
5.19833e-05
5.24828e-05
5.29267e-05
5.32819e-05
5.36158e-05
5.39068e-05
5.4214e-05
5.45846e-05
5.49633e-05
5.53725e-05
5.59247e-05
5.7729e-05
5.50992e-05
)
;

boundaryField
{
    movingWall
    {
        type            nutkWallFunction;
        Cmu             0.09;
        kappa           0.41;
        E               9.8;
        value           nonuniform List<scalar> 
20
(
0
0
0
2.35841e-07
4.34145e-07
5.77395e-07
6.93126e-07
7.92878e-07
8.74788e-07
9.47277e-07
1.00497e-06
1.05908e-06
1.10593e-06
1.15549e-06
1.215e-06
1.27625e-06
1.34222e-06
1.43147e-06
1.72253e-06
1.29384e-06
)
;
    }
    movingWallBottom
    {
        type            nutkWallFunction;
        Cmu             0.09;
        kappa           0.41;
        E               9.8;
        value           nonuniform List<scalar> 
20
(
0
0
0
2.34036e-07
4.32479e-07
5.76231e-07
6.92751e-07
7.93396e-07
8.76225e-07
9.49569e-07
1.00799e-06
1.06264e-06
1.10983e-06
1.15952e-06
1.21884e-06
1.28e-06
1.34575e-06
1.43478e-06
1.72522e-06
1.2959e-06
)
;
    }
    fixedWalls
    {
        type            nutkWallFunction;
        Cmu             0.09;
        kappa           0.41;
        E               9.8;
        value           nonuniform List<scalar> 
40
(
0
0
0
0
0
0
0
0
0
0
0
0
0
0
0
0
0
0
0
0
1.2959e-06
4.13567e-07
0
0
0
0
0
0
0
0
0
0
0
0
0
0
0
0
4.11896e-07
1.29384e-06
)
;
    }
    frontAndBack
    {
        type            empty;
    }
}


// ************************************************************************* //
