/*--------------------------------*- C++ -*----------------------------------*\
| =========                 |                                                 |
| \\      /  F ield         | OpenFOAM: The Open Source CFD Toolbox           |
|  \\    /   O peration     | Version:  4.1                                   |
|   \\  /    A nd           | Web:      www.OpenFOAM.org                      |
|    \\/     M anipulation  |                                                 |
\*---------------------------------------------------------------------------*/
FoamFile
{
    version     2.0;
    format      ascii;
    class       volScalarField;
    location    "2.5";
    object      p;
}
// * * * * * * * * * * * * * * * * * * * * * * * * * * * * * * * * * * * * * //

dimensions      [0 2 -2 0 0 0 0];

internalField   nonuniform List<scalar> 
400
(
1.37782e-07
0.000559034
-0.00295477
-0.00652475
-0.00970074
-0.0124449
-0.0147455
-0.0165726
-0.0179184
-0.0188175
-0.0193237
-0.0194811
-0.0192829
-0.0186645
-0.0174739
-0.0153727
-0.0111084
-0.00336399
0.00912237
0.0294731
-0.00554275
-0.00486646
-0.0062705
-0.00856415
-0.0111625
-0.0136374
-0.0157544
-0.0174202
-0.0186358
-0.0194448
-0.0199088
-0.0200776
-0.0199645
-0.0195224
-0.018585
-0.0168978
-0.014132
-0.00919858
-0.00173329
0.0169822
-0.00585933
-0.00613973
-0.00770117
-0.00996939
-0.0124285
-0.0146924
-0.0165544
-0.0179645
-0.0189614
-0.0196014
-0.0199549
-0.0200474
-0.0199313
-0.0195831
-0.0189736
-0.0178781
-0.0162255
-0.0132196
-0.0100935
0.00066574
-0.00693472
-0.00767607
-0.00937178
-0.0116669
-0.0139905
-0.0160137
-0.0176169
-0.0187899
-0.0195842
-0.0200693
-0.0203128
-0.0203561
-0.0202267
-0.0198907
-0.0193803
-0.0185762
-0.0175986
-0.0154052
-0.0145799
-0.00853282
-0.00727101
-0.00837825
-0.0102344
-0.0125672
-0.0148142
-0.0167203
-0.0181966
-0.0192444
-0.019921
-0.0203025
-0.0204569
-0.020434
-0.0202745
-0.0199664
-0.0195121
-0.0188264
-0.018203
-0.0161909
-0.0155893
-0.0110543
-0.00654398
-0.0080143
-0.0100539
-0.0125394
-0.0148812
-0.0168308
-0.0183165
-0.0193521
-0.0200034
-0.0203519
-0.0204711
-0.0204108
-0.0202072
-0.019867
-0.0193845
-0.0187077
-0.0179399
-0.0158973
-0.0139928
-0.00948273
-0.00475987
-0.00646755
-0.0087684
-0.0115064
-0.0141043
-0.0162707
-0.0179195
-0.0190665
-0.0197884
-0.0201667
-0.0202845
-0.0202053
-0.0199616
-0.0195738
-0.0190211
-0.0181879
-0.0168418
-0.0141127
-0.0104589
-0.00552563
-0.00214239
-0.00405696
-0.00662783
-0.00968004
-0.0126321
-0.01513
-0.0170541
-0.0184094
-0.0192711
-0.0197272
-0.0198671
-0.0197657
-0.0194746
-0.0189974
-0.0182511
-0.0169769
-0.0146155
-0.0105043
-0.00497953
0.000206958
0.00054555
-0.00144313
-0.00417032
-0.00746354
-0.0107342
-0.0135813
-0.0158463
-0.017479
-0.0185398
-0.0191187
-0.0193123
-0.0192006
-0.0188302
-0.0181669
-0.0170219
-0.014935
-0.0111676
-0.00528776
0.00220509
0.00657848
0.00223558
0.0002395
-0.00254216
-0.00596314
-0.00943255
-0.0124683
-0.0149017
-0.0167026
-0.0179101
-0.0185907
-0.0188198
-0.0186723
-0.0182055
-0.0173369
-0.0157556
-0.0128141
-0.00778169
-0.000563287
0.00745129
0.0114287
0.00225004
0.000256184
-0.00252325
-0.00594301
-0.00941439
-0.0124535
-0.0148912
-0.0166969
-0.0179093
-0.0185946
-0.0188292
-0.0186878
-0.0182198
-0.0173514
-0.0157717
-0.0128328
-0.00780326
-0.000587627
0.00742527
0.0114043
0.000589424
-0.00139488
-0.00411889
-0.00741192
-0.0106864
-0.0135407
-0.0158172
-0.017464
-0.0185395
-0.0191325
-0.0193379
-0.0192344
-0.0188704
-0.0182095
-0.0170659
-0.0149799
-0.0112154
-0.00533993
0.00214504
0.00652443
-0.00208241
-0.00399417
-0.00656326
-0.00961695
-0.0125761
-0.0150865
-0.0170259
-0.018398
-0.0192766
-0.0197484
-0.019901
-0.0198079
-0.0195238
-0.0190502
-0.0183041
-0.0170287
-0.0146675
-0.0105588
-0.00504175
0.000145167
-0.00469811
-0.00640357
-0.0087042
-0.0114445
-0.0140504
-0.0162299
-0.0178948
-0.019059
-0.0197979
-0.020192
-0.020323
-0.0202541
-0.0200156
-0.0196302
-0.0190768
-0.0182406
-0.0168925
-0.0141625
-0.0105137
-0.00558349
-0.00648779
-0.0079573
-0.00999653
-0.0124835
-0.014832
-0.0167934
-0.0182943
-0.0193464
-0.0200144
-0.0203786
-0.0205109
-0.0204603
-0.0202626
-0.0199247
-0.0194414
-0.018761
-0.0179892
-0.0159419
-0.01404
-0.00953157
-0.00722355
-0.00833079
-0.0101855
-0.0125189
-0.0147706
-0.016686
-0.0181755
-0.0192387
-0.0199316
-0.0203284
-0.0204959
-0.020482
-0.0203286
-0.0200234
-0.0195685
-0.018879
-0.0182484
-0.0162304
-0.0156271
-0.0110891
-0.0068969
-0.00763762
-0.00933117
-0.0116254
-0.0139516
-0.0159819
-0.0175963
-0.0187833
-0.0195927
-0.0200925
-0.0203488
-0.0204018
-0.0202769
-0.0199449
-0.0194336
-0.0186237
-0.0176365
-0.015436
-0.0145995
-0.00854956
-0.00582959
-0.00610951
-0.00766778
-0.00993375
-0.0123939
-0.0146629
-0.0165342
-0.0179566
-0.0189676
-0.0196217
-0.0199879
-0.0200902
-0.0199817
-0.0196342
-0.0190218
-0.0179175
-0.0162529
-0.0132356
-0.0100936
0.000668492
-0.00551993
-0.00484337
-0.00624276
-0.00853223
-0.0111296
-0.0136075
-0.0157315
-0.0174078
-0.0186361
-0.0194587
-0.0199354
-0.0201146
-0.0200084
-0.0195683
-0.0186266
-0.016929
-0.0141486
-0.00919962
-0.00171698
0.0170022
1.99548e-05
0.000578964
-0.00292968
-0.00649521
-0.00966943
-0.0124159
-0.0147233
-0.0165609
-0.0179195
-0.0188322
-0.0193508
-0.0195178
-0.0193251
-0.0187069
-0.0175112
-0.0153999
-0.0111185
-0.00335591
0.00914602
0.0295016
)
;

boundaryField
{
    movingWall
    {
        type            zeroGradient;
    }
    movingWallBottom
    {
        type            zeroGradient;
    }
    fixedWalls
    {
        type            zeroGradient;
    }
    frontAndBack
    {
        type            empty;
    }
}


// ************************************************************************* //
