/*--------------------------------*- C++ -*----------------------------------*\
| =========                 |                                                 |
| \\      /  F ield         | OpenFOAM: The Open Source CFD Toolbox           |
|  \\    /   O peration     | Version:  4.1                                   |
|   \\  /    A nd           | Web:      www.OpenFOAM.org                      |
|    \\/     M anipulation  |                                                 |
\*---------------------------------------------------------------------------*/
FoamFile
{
    version     2.0;
    format      ascii;
    class       surfaceScalarField;
    location    "2.5";
    object      phi;
}
// * * * * * * * * * * * * * * * * * * * * * * * * * * * * * * * * * * * * * //

dimensions      [0 3 -1 0 0 0 0];

internalField   nonuniform List<scalar> 
760
(
3.06307e-06
-3.06308e-06
5.14013e-06
-2.07706e-06
6.78122e-06
-1.64109e-06
8.19859e-06
-1.41736e-06
9.39786e-06
-1.19927e-06
1.03893e-05
-9.91478e-07
1.1195e-05
-8.0563e-07
1.18471e-05
-6.52178e-07
1.23816e-05
-5.34486e-07
1.28201e-05
-4.38453e-07
1.31852e-05
-3.65151e-07
1.34758e-05
-2.9052e-07
1.36992e-05
-2.23418e-07
1.38264e-05
-1.27255e-07
1.38598e-05
-3.33805e-08
1.35945e-05
2.65268e-07
1.29507e-05
6.43837e-07
1.11716e-05
1.77907e-06
7.7347e-06
3.43693e-06
7.7347e-06
8.01068e-07
-3.86415e-06
2.20159e-06
-3.47758e-06
3.60756e-06
-3.04707e-06
4.74689e-06
-2.55669e-06
5.62842e-06
-2.0808e-06
6.27837e-06
-1.64143e-06
6.74651e-06
-1.27378e-06
7.06916e-06
-9.74823e-07
7.28309e-06
-7.48417e-07
7.4112e-06
-5.66565e-07
7.48158e-06
-4.35536e-07
7.49553e-06
-3.04467e-07
7.47284e-06
-2.00729e-07
7.35383e-06
-8.23922e-09
7.18868e-06
1.31771e-07
6.89915e-06
5.5479e-07
6.33915e-06
1.20384e-06
5.25899e-06
2.85923e-06
2.90251e-06
5.79341e-06
1.06372e-05
8.39792e-07
-4.70394e-06
1.98425e-06
-4.62204e-06
3.00459e-06
-4.06741e-06
3.7889e-06
-3.341e-06
4.34763e-06
-2.63954e-06
4.71897e-06
-2.01277e-06
4.93542e-06
-1.49022e-06
5.03067e-06
-1.07007e-06
5.02626e-06
-7.44014e-07
4.95088e-06
-4.91177e-07
4.81e-06
-2.94664e-07
4.63512e-06
-1.29581e-07
4.42708e-06
7.3055e-09
4.19781e-06
2.21035e-07
3.87271e-06
4.56876e-07
3.49363e-06
9.33869e-07
2.89749e-06
1.79998e-06
2.20274e-06
3.55397e-06
1.01598e-06
6.98018e-06
1.16532e-05
7.04268e-07
-5.40821e-06
1.41481e-06
-5.33259e-06
2.02314e-06
-4.67573e-06
2.49688e-06
-3.81474e-06
2.82154e-06
-2.9642e-06
3.01669e-06
-2.20792e-06
3.10431e-06
-1.57784e-06
3.10957e-06
-1.07533e-06
3.05255e-06
-6.86994e-07
2.95093e-06
-3.89561e-07
2.81427e-06
-1.58007e-07
2.64541e-06
3.9283e-08
2.43812e-06
2.14594e-07
2.2242e-06
4.34956e-07
1.96143e-06
7.19642e-07
1.69805e-06
1.19726e-06
1.30602e-06
2.192e-06
8.50556e-07
4.00944e-06
3.36171e-07
7.49456e-06
1.19894e-05
3.71939e-07
-5.78015e-06
6.03169e-07
-5.56382e-06
8.14285e-07
-4.88685e-06
9.76501e-07
-3.97695e-06
1.07186e-06
-3.05956e-06
1.11493e-06
-2.25099e-06
1.11906e-06
-1.58197e-06
1.09524e-06
-1.05151e-06
1.05056e-06
-6.42306e-07
9.89638e-07
-3.28644e-07
9.16051e-07
-8.44195e-08
8.33614e-07
1.2172e-07
7.33105e-07
3.15103e-07
6.25199e-07
5.42862e-07
5.04132e-07
8.40709e-07
3.39377e-07
1.36201e-06
2.55504e-07
2.27587e-06
-1.20771e-07
4.38572e-06
-2.43729e-07
7.61752e-06
1.17456e-05
-1.54557e-07
-5.62559e-06
-3.27278e-07
-5.3911e-06
-4.92869e-07
-4.72126e-06
-6.19417e-07
-3.8504e-06
-7.25352e-07
-2.95362e-06
-8.1159e-07
-2.16475e-06
-8.75483e-07
-1.51808e-06
-9.17877e-07
-1.00912e-06
-9.40695e-07
-6.19488e-07
-9.47055e-07
-3.22284e-07
-9.42856e-07
-8.86186e-08
-9.30645e-07
1.09509e-07
-9.1706e-07
3.01518e-07
-9.00848e-07
5.2665e-07
-8.94446e-07
8.34307e-07
-8.89576e-07
1.35714e-06
-8.89164e-07
2.27546e-06
-8.87636e-07
4.38419e-06
-8.49764e-07
7.57965e-06
1.08959e-05
-6.68929e-07
-4.95666e-06
-1.34309e-06
-4.71693e-06
-1.88178e-06
-4.18258e-06
-2.29998e-06
-3.43219e-06
-2.60287e-06
-2.65073e-06
-2.81001e-06
-1.95762e-06
-2.93696e-06
-1.39112e-06
-2.99915e-06
-9.46931e-07
-3.00878e-06
-6.09861e-07
-2.97546e-06
-3.556e-07
-2.91001e-06
-1.54071e-07
-2.82558e-06
2.5084e-08
-2.72407e-06
1.99999e-07
-2.61807e-06
4.2065e-07
-2.53287e-06
7.49108e-07
-2.46749e-06
1.29177e-06
-2.44203e-06
2.25e-06
-2.22668e-06
4.16884e-06
-1.69013e-06
7.04309e-06
9.20574e-06
-1.22477e-06
-3.73189e-06
-2.39083e-06
-3.55087e-06
-3.37096e-06
-3.20245e-06
-4.12772e-06
-2.67543e-06
-4.67217e-06
-2.10628e-06
-5.04704e-06
-1.58275e-06
-5.28689e-06
-1.15127e-06
-5.42775e-06
-8.06068e-07
-5.49428e-06
-5.43335e-07
-5.50965e-06
-3.40234e-07
-5.48861e-06
-1.75106e-07
-5.45291e-06
-1.06194e-08
-5.39867e-06
1.45761e-07
-5.32688e-06
3.48857e-07
-5.22054e-06
6.42775e-07
-5.03824e-06
1.10947e-06
-4.73745e-06
1.94921e-06
-4.01828e-06
3.44967e-06
-2.42128e-06
5.4461e-06
6.78446e-06
-1.7357e-06
-1.9962e-06
-3.37155e-06
-1.91501e-06
-4.82692e-06
-1.74708e-06
-6.02537e-06
-1.47698e-06
-6.95314e-06
-1.17852e-06
-7.6251e-06
-9.10786e-07
-8.09399e-06
-6.82386e-07
-8.40749e-06
-4.92565e-07
-8.60988e-06
-3.40943e-07
-8.7318e-06
-2.1832e-07
-8.79225e-06
-1.14658e-07
-8.79971e-06
-3.15082e-09
-8.74271e-06
8.87603e-08
-8.60081e-06
2.06951e-07
-8.33334e-06
3.7531e-07
-7.86538e-06
6.41507e-07
-7.04448e-06
1.1283e-06
-5.54596e-06
1.95115e-06
-3.20612e-06
3.10625e-06
3.57834e-06
-1.98074e-06
-1.54543e-08
-3.87987e-06
-1.58863e-08
-5.61395e-06
-1.29991e-08
-7.08323e-06
-7.69527e-09
-8.26058e-06
-1.16937e-09
-9.17629e-06
4.92113e-09
-9.86835e-06
9.6736e-09
-1.03737e-05
1.27447e-08
-1.07291e-05
1.44824e-08
-1.09621e-05
1.47115e-08
-1.10912e-05
1.43781e-08
-1.11071e-05
1.27731e-08
-1.10277e-05
9.34216e-09
-1.08263e-05
5.59151e-09
-1.04533e-05
2.34971e-09
-9.81013e-06
-1.70213e-09
-8.67645e-06
-5.37822e-09
-6.71542e-06
-9.87606e-09
-3.59521e-06
-1.39623e-08
-1.68652e-08
-1.97917e-06
1.96372e-06
-3.87841e-06
1.88336e-06
-5.61352e-06
1.72211e-06
-7.08443e-06
1.46322e-06
-8.26246e-06
1.17686e-06
-9.17757e-06
9.20029e-07
-9.86844e-06
7.00542e-07
-1.03727e-05
5.17052e-07
-1.07275e-05
3.69222e-07
-1.09602e-05
2.47441e-07
-1.10883e-05
1.42426e-07
-1.11072e-05
3.16917e-08
-1.10239e-05
-7.39672e-08
-1.08209e-05
-1.97418e-07
-1.04471e-05
-3.71443e-07
-9.80404e-06
-6.44732e-07
-8.67102e-06
-1.1384e-06
-6.71124e-06
-1.96966e-06
-3.59289e-06
-3.13231e-06
-3.60975e-06
-1.73997e-06
3.70368e-06
-3.38148e-06
3.52487e-06
-4.8429e-06
3.18353e-06
-6.04666e-06
2.66698e-06
-6.979e-06
2.1092e-06
-7.65414e-06
1.59517e-06
-8.12356e-06
1.16996e-06
-8.43487e-06
8.28363e-07
-8.63255e-06
5.66895e-07
-8.74792e-06
3.6281e-07
-8.80027e-06
1.9478e-07
-8.79738e-06
2.88052e-08
-8.73625e-06
-1.35104e-07
-8.59072e-06
-3.42942e-07
-8.32064e-06
-6.4152e-07
-7.85223e-06
-1.11315e-06
-7.03271e-06
-1.95792e-06
-5.53733e-06
-3.46504e-06
-3.2012e-06
-5.46844e-06
-6.81095e-06
-1.23118e-06
4.93486e-06
-2.40315e-06
4.69683e-06
-3.3889e-06
4.16928e-06
-4.15013e-06
3.42821e-06
-4.69732e-06
2.65639e-06
-5.07286e-06
1.97072e-06
-5.31127e-06
1.40837e-06
-5.44902e-06
9.66109e-07
-5.51139e-06
6.29271e-07
-5.52191e-06
3.73322e-07
-5.49608e-06
1.68956e-07
-5.4523e-06
-1.49796e-08
-5.39403e-06
-1.93367e-07
-5.31832e-06
-4.18659e-07
-5.20864e-06
-7.51193e-07
-5.02473e-06
-1.29706e-06
-4.72439e-06
-2.25825e-06
-4.00858e-06
-4.18085e-06
-2.4166e-06
-7.06042e-06
-9.22755e-06
-6.74006e-07
5.60887e-06
-1.35383e-06
5.37666e-06
-1.89677e-06
4.71223e-06
-2.31739e-06
3.84882e-06
-2.62066e-06
2.95967e-06
-2.82652e-06
2.17657e-06
-2.95128e-06
1.53313e-06
-3.01076e-06
1.02559e-06
-3.01754e-06
6.36046e-07
-2.98151e-06
3.3729e-07
-2.91319e-06
1.00638e-07
-2.82709e-06
-1.01082e-07
-2.72311e-06
-2.97337e-07
-2.61498e-06
-5.26798e-07
-2.52773e-06
-8.38435e-07
-2.46014e-06
-1.36465e-06
-2.43274e-06
-2.28566e-06
-2.21756e-06
-4.39603e-06
-1.68526e-06
-7.59273e-06
-1.09128e-05
-1.59519e-07
5.76839e-06
-3.35803e-07
5.55294e-06
-5.03905e-07
4.88033e-06
-6.31725e-07
3.97664e-06
-7.37226e-07
3.06517e-06
-8.21808e-07
2.26115e-06
-8.83611e-07
1.59493e-06
-9.23764e-07
1.06575e-06
-9.44406e-07
6.56688e-07
-9.4887e-07
3.41754e-07
-9.43094e-07
9.48618e-08
-9.29838e-07
-1.14337e-07
-9.15533e-07
-3.11642e-07
-8.98802e-07
-5.43529e-07
-8.91929e-07
-8.45308e-07
-8.86571e-07
-1.37001e-06
-8.84563e-07
-2.28766e-06
-8.82871e-07
-4.39772e-06
-8.46284e-07
-7.62931e-06
-1.17591e-05
3.6848e-07
5.39991e-06
5.96506e-07
5.32491e-06
8.05843e-07
4.67099e-06
9.67923e-07
3.81456e-06
1.06443e-06
2.96866e-06
1.10937e-06
2.21622e-06
1.11562e-06
1.58868e-06
1.09401e-06
1.08736e-06
1.05148e-06
6.99215e-07
9.92446e-07
4.00792e-07
9.20054e-07
1.67253e-07
8.38847e-07
-3.31299e-08
7.38705e-07
-2.115e-07
6.30898e-07
-4.35722e-07
5.09732e-07
-7.24142e-07
3.45107e-07
-1.20539e-06
2.60068e-07
-2.20262e-06
-1.17435e-07
-4.02022e-06
-2.40054e-07
-7.50669e-06
-1.19991e-05
7.01593e-07
4.69832e-06
1.40994e-06
4.61656e-06
2.01694e-06
4.06399e-06
2.49075e-06
3.34075e-06
2.81683e-06
2.64258e-06
3.01436e-06
2.01869e-06
3.10479e-06
1.49825e-06
3.11292e-06
1.07923e-06
3.05867e-06
7.53469e-07
2.95948e-06
4.99976e-07
2.82491e-06
3.01829e-07
2.65727e-06
1.34507e-07
2.44994e-06
-4.16978e-09
2.23604e-06
-2.21819e-07
1.9722e-06
-4.60302e-07
1.7074e-06
-9.40587e-07
1.31297e-06
-1.80819e-06
8.56484e-07
-3.56373e-06
3.38896e-07
-6.98911e-06
-1.16603e-05
8.3769e-07
3.86063e-06
1.98038e-06
3.47388e-06
2.99968e-06
3.04469e-06
3.78412e-06
2.55631e-06
4.34428e-06
2.08242e-06
4.71818e-06
1.64479e-06
4.9379e-06
1.27854e-06
5.03678e-06
9.80346e-07
5.03603e-06
7.54212e-07
4.96397e-06
5.72043e-07
4.8256e-06
4.40199e-07
4.65206e-06
3.08042e-07
4.44539e-06
2.025e-07
4.21594e-06
7.63649e-09
3.88895e-06
-1.33318e-07
3.50727e-06
-5.58908e-07
2.90749e-06
-1.20841e-06
2.20949e-06
-2.86573e-06
1.01898e-06
-5.7986e-06
-1.06413e-05
7.9878e-07
3.06185e-06
2.19729e-06
2.07537e-06
3.60221e-06
1.63976e-06
4.74162e-06
1.41691e-06
5.62423e-06
1.19981e-06
6.27626e-06
9.92764e-07
6.74728e-06
8.07508e-07
7.07328e-06
6.54343e-07
7.29071e-06
5.36784e-07
7.42216e-06
4.40592e-07
7.49537e-06
3.66993e-07
7.51157e-06
2.91839e-07
7.4899e-06
2.24178e-07
7.37041e-06
1.27121e-07
7.20412e-06
3.29747e-08
6.91232e-06
-2.6711e-07
6.3494e-06
-6.45496e-07
5.26548e-06
-1.78181e-06
2.90559e-06
-3.43871e-06
-7.73568e-06
3.06185e-06
5.13721e-06
6.77698e-06
8.19389e-06
9.3937e-06
1.03865e-05
1.1194e-05
1.18483e-05
1.23851e-05
1.28257e-05
1.31927e-05
1.34845e-05
1.37087e-05
1.38358e-05
1.38688e-05
1.36017e-05
1.29562e-05
1.11744e-05
7.73568e-06
)
;

boundaryField
{
    movingWall
    {
        type            calculated;
        value           uniform 0;
    }
    movingWallBottom
    {
        type            calculated;
        value           uniform 0;
    }
    fixedWalls
    {
        type            calculated;
        value           uniform 0;
    }
    frontAndBack
    {
        type            empty;
        value           nonuniform 0();
    }
}


// ************************************************************************* //
