/*--------------------------------*- C++ -*----------------------------------*\
| =========                 |                                                 |
| \\      /  F ield         | OpenFOAM: The Open Source CFD Toolbox           |
|  \\    /   O peration     | Version:  4.1                                   |
|   \\  /    A nd           | Web:      www.OpenFOAM.org                      |
|    \\/     M anipulation  |                                                 |
\*---------------------------------------------------------------------------*/
FoamFile
{
    version     2.0;
    format      ascii;
    class       volVectorField;
    location    "2.5";
    object      U;
}
// * * * * * * * * * * * * * * * * * * * * * * * * * * * * * * * * * * * * * //

dimensions      [0 1 -1 0 0 0 0];

internalField   nonuniform List<vector> 
400
(
(0.0606276 -0.0982006 0)
(0.0742636 -0.0631128 0)
(0.117089 -0.0423638 0)
(0.150633 -0.0331639 0)
(0.177026 -0.0276242 0)
(0.19864 -0.0235406 0)
(0.216311 -0.020175 0)
(0.231146 -0.0174927 0)
(0.242964 -0.0151634 0)
(0.252842 -0.0133609 0)
(0.260466 -0.0115566 0)
(0.266917 -0.0102123 0)
(0.271454 -0.0084304 0)
(0.274952 -0.00710272 0)
(0.276002 -0.00467967 0)
(0.273626 -0.00174311 0)
(0.264748 0.000556214 0)
(0.247573 0.0105957 0)
(0.188506 0.0223533 0)
(0.173138 0.117999 0)
(0.0118357 -0.0453428 0)
(0.0256688 -0.0368123 0)
(0.0577784 -0.0346315 0)
(0.0829953 -0.0310218 0)
(0.103442 -0.0257378 0)
(0.119176 -0.0205289 0)
(0.130575 -0.0159011 0)
(0.138959 -0.012004 0)
(0.144149 -0.00927738 0)
(0.14787 -0.00696574 0)
(0.149242 -0.00565014 0)
(0.150268 -0.00382319 0)
(0.149249 -0.0027863 0)
(0.148508 8.8328e-05 0)
(0.1438 0.00228374 0)
(0.141175 0.00953883 0)
(0.128159 0.0190825 0)
(0.123155 0.0469155 0)
(0.063984 0.091411 0)
(0.090202 0.164016 0)
(0.00968843 -0.0923461 0)
(0.0271604 -0.0888652 0)
(0.0493325 -0.0787551 0)
(0.067618 -0.0663006 0)
(0.0810816 -0.0543028 0)
(0.0909319 -0.0425497 0)
(0.0971434 -0.0324702 0)
(0.100477 -0.0243285 0)
(0.101215 -0.018016 0)
(0.100506 -0.0131589 0)
(0.0978471 -0.00939201 0)
(0.0951173 -0.00621538 0)
(0.0900533 -0.00340762 0)
(0.0869171 7.41222e-05 0)
(0.079059 0.0042462 0)
(0.0751009 0.0139013 0)
(0.0595693 0.0303654 0)
(0.0626398 0.0671116 0)
(0.0092488 0.132829 0)
(0.0498486 0.221959 0)
(0.00803668 -0.103954 0)
(0.02139 -0.102543 0)
(0.0332119 -0.0899809 0)
(0.0444953 -0.0731165 0)
(0.0531304 -0.0564779 0)
(0.0587085 -0.0421884 0)
(0.061767 -0.0305077 0)
(0.0627405 -0.0211859 0)
(0.0621206 -0.0139344 0)
(0.0604487 -0.00827733 0)
(0.0578907 -0.0038232 0)
(0.0548915 -3.00893e-05 0)
(0.0507551 0.00340668 0)
(0.0469868 0.00753305 0)
(0.0411795 0.0127833 0)
(0.038242 0.022358 0)
(0.0250234 0.0412506 0)
(0.0344907 0.0784744 0)
(-0.0104211 0.149939 0)
(0.0323212 0.248964 0)
(0.00373563 -0.115033 0)
(0.00985337 -0.112736 0)
(0.0129824 -0.0991497 0)
(0.0173285 -0.0808215 0)
(0.0202965 -0.0625776 0)
(0.0219326 -0.0462652 0)
(0.022621 -0.032638 0)
(0.0224823 -0.0218117 0)
(0.0217655 -0.0134649 0)
(0.0206451 -0.00711182 0)
(0.0192256 -0.00220426 0)
(0.0176406 0.00187037 0)
(0.0156762 0.00564501 0)
(0.013681 0.0101341 0)
(0.0108349 0.0160256 0)
(0.0105995 0.0261325 0)
(9.98386e-05 0.0454054 0)
(0.013735 0.0848393 0)
(-0.0220735 0.156908 0)
(0.0185573 0.248108 0)
(-0.00362406 -0.116616 0)
(-0.00412293 -0.111065 0)
(-0.00957289 -0.0968853 0)
(-0.0120577 -0.0789173 0)
(-0.0139203 -0.0605023 0)
(-0.0155882 -0.0443283 0)
(-0.0168207 -0.0310355 0)
(-0.0178205 -0.020544 0)
(-0.01844 -0.0124695 0)
(-0.0187811 -0.00627581 0)
(-0.0188211 -0.00139428 0)
(-0.0186706 0.00271359 0)
(-0.0184888 0.006659 0)
(-0.0182162 0.0114418 0)
(-0.0181807 0.017758 0)
(-0.0167981 0.0279935 0)
(-0.0227863 0.0458524 0)
(-0.00829403 0.0866154 0)
(-0.0335507 0.153394 0)
(0.00980119 0.233742 0)
(-0.00988694 -0.105692 0)
(-0.0202686 -0.102046 0)
(-0.034407 -0.0900379 0)
(-0.0438936 -0.0734555 0)
(-0.0500892 -0.0564809 0)
(-0.0547763 -0.0415502 0)
(-0.0575823 -0.0292932 0)
(-0.0593904 -0.0196193 0)
(-0.0600325 -0.012286 0)
(-0.0597756 -0.00670031 0)
(-0.0588068 -0.00227193 0)
(-0.0573194 0.00145435 0)
(-0.0555226 0.00506765 0)
(-0.0535713 0.00908344 0)
(-0.0521557 0.0145276 0)
(-0.0511464 0.024309 0)
(-0.0527766 0.0425918 0)
(-0.0414476 0.0852639 0)
(-0.0501251 0.149543 0)
(-0.00458197 0.206994 0)
(-0.0172182 -0.0863066 0)
(-0.0364437 -0.0822867 0)
(-0.0603357 -0.0736929 0)
(-0.078123 -0.0610563 0)
(-0.0896691 -0.0476635 0)
(-0.0983637 -0.0355614 0)
(-0.103617 -0.0255216 0)
(-0.107289 -0.017649 0)
(-0.10911 -0.0116089 0)
(-0.109893 -0.00709393 0)
(-0.109774 -0.00353048 0)
(-0.109235 -0.000239808 0)
(-0.108673 0.00333457 0)
(-0.108115 0.0079944 0)
(-0.107628 0.0149463 0)
(-0.10624 0.026083 0)
(-0.101123 0.0461675 0)
(-0.0850204 0.0837688 0)
(-0.0669103 0.134029 0)
(-0.0171242 0.168954 0)
(-0.0235045 -0.0559286 0)
(-0.0512516 -0.0539274 0)
(-0.084697 -0.0485685 0)
(-0.112535 -0.0404553 0)
(-0.131993 -0.0317726 0)
(-0.147836 -0.0239603 0)
(-0.157869 -0.0178152 0)
(-0.165433 -0.012682 0)
(-0.17002 -0.0087473 0)
(-0.173331 -0.00550308 0)
(-0.174938 -0.00278136 0)
(-0.175963 -1.38727e-05 0)
(-0.176354 0.00311853 0)
(-0.175554 0.00706974 0)
(-0.173274 0.0126998 0)
(-0.166994 0.021734 0)
(-0.152319 0.0377546 0)
(-0.124717 0.0641721 0)
(-0.0792401 0.0979725 0)
(-0.0431859 0.113348 0)
(-0.0260793 -0.0197637 0)
(-0.0586283 -0.0191537 0)
(-0.0974306 -0.0175738 0)
(-0.131481 -0.0149913 0)
(-0.156219 -0.012206 0)
(-0.176234 -0.00971514 0)
(-0.191419 -0.00700047 0)
(-0.203052 -0.00494261 0)
(-0.211224 -0.00325233 0)
(-0.217013 -0.00198685 0)
(-0.220495 -0.000890747 0)
(-0.222356 0.000131718 0)
(-0.222818 0.00142141 0)
(-0.221724 0.00293925 0)
(-0.217677 0.0052093 0)
(-0.207439 0.00883049 0)
(-0.18639 0.0153001 0)
(-0.150318 0.0254413 0)
(-0.0971561 0.0380789 0)
(-0.0469005 0.0426761 0)
(-0.0260422 0.0191434 0)
(-0.0585953 0.0185287 0)
(-0.0973993 0.017078 0)
(-0.131485 0.0147138 0)
(-0.156266 0.0121717 0)
(-0.176279 0.00992833 0)
(-0.191429 0.00740283 0)
(-0.203049 0.0054659 0)
(-0.211197 0.00384545 0)
(-0.216974 0.0025884 0)
(-0.220451 0.00145574 0)
(-0.222341 0.000335636 0)
(-0.222761 -0.0010613 0)
(-0.221627 -0.00272095 0)
(-0.217555 -0.00512786 0)
(-0.207316 -0.00891647 0)
(-0.186272 -0.0155534 0)
(-0.150226 -0.0258927 0)
(-0.0970935 -0.0386979 0)
(-0.046812 -0.04342 0)
(-0.0235337 0.0553235 0)
(-0.0513847 0.0533517 0)
(-0.0849476 0.0481272 0)
(-0.11292 0.0402289 0)
(-0.132473 0.0317772 0)
(-0.148399 0.0241504 0)
(-0.158478 0.0181509 0)
(-0.166025 0.0131202 0)
(-0.170542 0.00923731 0)
(-0.173729 0.00599235 0)
(-0.175188 0.00322525 0)
(-0.176044 0.000392762 0)
(-0.176198 -0.0028161 0)
(-0.175418 -0.00688729 0)
(-0.173005 -0.0126297 0)
(-0.166742 -0.0217976 0)
(-0.152047 -0.0379434 0)
(-0.124505 -0.0645156 0)
(-0.0791538 -0.0984603 0)
(-0.0430157 -0.113909 0)
(-0.017298 0.0858077 0)
(-0.0366224 0.0818213 0)
(-0.0606351 0.0733645 0)
(-0.0785375 0.06092 0)
(-0.0901635 0.0477314 0)
(-0.0988955 0.0358031 0)
(-0.104134 0.0258668 0)
(-0.107757 0.0180462 0)
(-0.109501 0.0120199 0)
(-0.110194 0.00747813 0)
(-0.109969 0.0038513 0)
(-0.109305 0.00048877 0)
(-0.108613 -0.00316486 0)
(-0.107982 -0.00790258 0)
(-0.107406 -0.0149312 0)
(-0.10597 -0.0261367 0)
(-0.100847 -0.0462952 0)
(-0.0847526 -0.0840079 0)
(-0.066837 -0.134402 0)
(-0.0170053 -0.169432 0)
(-0.00992679 0.105289 0)
(-0.0204356 0.101687 0)
(-0.0346669 0.0897996 0)
(-0.0442327 0.0733895 0)
(-0.0504581 0.056595 0)
(-0.0551363 0.0417982 0)
(-0.057898 0.0296133 0)
(-0.0596544 0.0199717 0)
(-0.0602386 0.0126411 0)
(-0.0599239 0.00702105 0)
(-0.058901 0.00253482 0)
(-0.0573625 -0.00126161 0)
(-0.0555272 -0.00496786 0)
(-0.0535287 -0.00906985 0)
(-0.0520689 -0.0145908 0)
(-0.0510083 -0.0244316 0)
(-0.0526168 -0.0427487 0)
(-0.0412158 -0.0854576 0)
(-0.0500255 -0.149802 0)
(-0.00450265 -0.207365 0)
(-0.00371085 0.116326 0)
(-0.00425693 0.110807 0)
(-0.00977589 0.0967295 0)
(-0.0123076 0.0788955 0)
(-0.0141735 0.0606137 0)
(-0.0158218 0.0445433 0)
(-0.0170101 0.0313126 0)
(-0.0179622 0.0208496 0)
(-0.0185376 0.012778 0)
(-0.0188373 0.00655614 0)
(-0.0188403 0.00161955 0)
(-0.0186631 -0.00256184 0)
(-0.0184625 -0.00658759 0)
(-0.0181772 -0.0114581 0)
(-0.0181347 -0.0178578 0)
(-0.0167306 -0.0281703 0)
(-0.0227296 -0.0461097 0)
(-0.00816202 -0.0868848 0)
(-0.0334881 -0.153673 0)
(0.00985842 -0.234053 0)
(0.00370174 0.114821 0)
(0.00975016 0.112546 0)
(0.0128326 0.0990333 0)
(0.017153 0.0808155 0)
(0.0201311 0.0626797 0)
(0.0217957 0.0464543 0)
(0.0225242 0.0328829 0)
(0.0224318 0.0220794 0)
(0.0217606 0.0137343 0)
(0.0206811 0.00735851 0)
(0.0192954 0.00240497 0)
(0.0177351 -0.00172916 0)
(0.0157862 -0.0055766 0)
(0.0137986 -0.0101486 0)
(0.0109475 -0.0161195 0)
(0.0107154 -0.0262991 0)
(0.000196679 -0.0456357 0)
(0.0138528 -0.0850693 0)
(-0.0220124 -0.15715 0)
(0.0185995 -0.248338 0)
(0.00799699 0.103821 0)
(0.0213208 0.102416 0)
(0.0331005 0.0899005 0)
(0.0443686 0.0731103 0)
(0.0530161 0.0565514 0)
(0.0586306 0.0423282 0)
(0.0617403 0.0306949 0)
(0.0627726 0.0213997 0)
(0.0622128 0.0141567 0)
(0.0605942 0.00848515 0)
(0.0580824 0.00399346 0)
(0.0551228 0.000150776 0)
(0.0509901 -0.00335311 0)
(0.0472333 -0.00755101 0)
(0.0414024 -0.0128706 0)
(0.038458 -0.0225124 0)
(0.0251848 -0.0414424 0)
(0.0346151 -0.0786994 0)
(-0.0103311 -0.15015 0)
(0.0323712 -0.24912 0)
(0.00965296 0.092253 0)
(0.0271051 0.0887727 0)
(0.0492484 0.0786943 0)
(0.0675195 0.0662938 0)
(0.0809956 0.0543492 0)
(0.0908823 0.0426459 0)
(0.0971483 0.0326046 0)
(0.100554 0.0244836 0)
(0.101365 0.0181765 0)
(0.100735 0.0133099 0)
(0.0981291 0.00951853 0)
(0.0954587 0.00630837 0)
(0.0903977 0.00345387 0)
(0.0872897 -8.47557e-05 0)
(0.0794049 -0.00428722 0)
(0.0754219 -0.0139974 0)
(0.0597976 -0.0304738 0)
(0.0628079 -0.0672495 0)
(0.00934795 -0.132945 0)
(0.0498904 -0.222055 0)
(0.0117939 0.0452959 0)
(0.0256081 0.0367552 0)
(0.0576842 0.034596 0)
(0.0828917 0.0310171 0)
(0.103342 0.0257682 0)
(0.119107 0.0205858 0)
(0.130546 0.0159782 0)
(0.138999 0.0120891 0)
(0.14425 0.00936414 0)
(0.148055 0.00704408 0)
(0.149479 0.00571478 0)
(0.150576 0.00386979 0)
(0.149577 0.00281021 0)
(0.148851 -9.98917e-05 0)
(0.144124 -0.00230788 0)
(0.141475 -0.00959961 0)
(0.128385 -0.0191396 0)
(0.123326 -0.0469945 0)
(0.0640815 -0.0914764 0)
(0.0902409 -0.164061 0)
(0.0605984 0.0981963 0)
(0.074235 0.0630979 0)
(0.117018 0.0423426 0)
(0.150548 0.0331477 0)
(0.176933 0.0276136 0)
(0.198565 0.0235331 0)
(0.216258 0.0201698 0)
(0.231138 0.0174891 0)
(0.242996 0.0151627 0)
(0.252929 0.0133626 0)
(0.260589 0.0115621 0)
(0.267081 0.0102191 0)
(0.271634 0.00843909 0)
(0.275149 0.00710883 0)
(0.276184 0.00468197 0)
(0.273791 0.00173911 0)
(0.264878 -0.000554388 0)
(0.247666 -0.0106089 0)
(0.188539 -0.0223528 0)
(0.173146 -0.117989 0)
)
;

boundaryField
{
    movingWall
    {
        type            fixedValue;
        value           uniform (1 0 0);
    }
    movingWallBottom
    {
        type            fixedValue;
        value           uniform (1 0 0);
    }
    fixedWalls
    {
        type            noSlip;
    }
    frontAndBack
    {
        type            empty;
    }
}


// ************************************************************************* //
