/*--------------------------------*- C++ -*----------------------------------*\
| =========                 |                                                 |
| \\      /  F ield         | OpenFOAM: The Open Source CFD Toolbox           |
|  \\    /   O peration     | Version:  4.1                                   |
|   \\  /    A nd           | Web:      www.OpenFOAM.org                      |
|    \\/     M anipulation  |                                                 |
\*---------------------------------------------------------------------------*/
FoamFile
{
    version     2.0;
    format      ascii;
    class       volScalarField;
    location    "9";
    object      epsilon;
}
// * * * * * * * * * * * * * * * * * * * * * * * * * * * * * * * * * * * * * //

dimensions      [0 2 -3 0 0 0 0];

internalField   nonuniform List<scalar> 
400
(
0.0399562
0.0700478
0.0914115
0.102766
0.110452
0.116146
0.12087
0.124725
0.128071
0.130822
0.133322
0.135555
0.13784
0.140169
0.143298
0.14623
0.149723
0.154627
0.171033
0.148967
0.00971637
0.00799151
0.00866411
0.00958975
0.0105527
0.0116086
0.0128644
0.0143502
0.0159842
0.0177874
0.0196012
0.0215931
0.0233237
0.0254843
0.0268442
0.0306639
0.0358936
0.0484455
0.0748326
0.110516
0.0109836
0.00572519
0.0042067
0.00378914
0.00381297
0.0040252
0.00451737
0.00523752
0.00608888
0.00703539
0.00797405
0.00890938
0.00968309
0.0103962
0.0108202
0.0117373
0.013425
0.0195049
0.0368382
0.0811296
0.0120151
0.00509682
0.00357626
0.00323995
0.00332223
0.00363206
0.00418045
0.00483885
0.00552479
0.00616447
0.00667489
0.00700083
0.00711306
0.00709267
0.0069558
0.00705707
0.0077633
0.0117938
0.0247335
0.0660578
0.0128004
0.00494148
0.0036135
0.00351723
0.00383673
0.00441299
0.00506137
0.00569849
0.00623048
0.00659501
0.00672822
0.00662605
0.00629807
0.00580981
0.00528574
0.00506747
0.00556427
0.0090517
0.0199853
0.0570285
0.013198
0.00505343
0.00412164
0.00410612
0.00467421
0.0053978
0.00610208
0.00668018
0.00701996
0.00712009
0.00692506
0.00646329
0.00579203
0.00502221
0.00436097
0.00411202
0.00479914
0.00819342
0.0189545
0.0500636
0.0136503
0.00582175
0.0047669
0.00467992
0.00532019
0.00612211
0.00680771
0.00726328
0.00744867
0.00739977
0.00697488
0.00630472
0.00549224
0.00469015
0.00423466
0.0041503
0.00509698
0.00870831
0.0195284
0.0437329
0.0139323
0.00649861
0.00508856
0.00493392
0.00555031
0.006349
0.00695895
0.00726428
0.00735259
0.00715882
0.00665488
0.00602533
0.00538513
0.00498265
0.00484716
0.00512846
0.00662327
0.0106974
0.0211665
0.036985
0.0140294
0.00720663
0.0050825
0.00448642
0.00446909
0.00491143
0.0051938
0.00538351
0.00545258
0.00546329
0.00545055
0.00548478
0.00566998
0.00603361
0.00672286
0.00798848
0.0103579
0.0146211
0.0211634
0.0287214
0.01405
0.00755598
0.0048518
0.00374067
0.00342331
0.00337028
0.00345888
0.00366156
0.00392815
0.00430086
0.00477128
0.00538937
0.00618004
0.00722114
0.00860934
0.0104931
0.0130076
0.016002
0.01746
0.0159644
0.0140245
0.00753439
0.00485491
0.00375959
0.00345144
0.00340415
0.00350658
0.00370936
0.00397411
0.00433405
0.00479012
0.00538561
0.006155
0.00716787
0.00853376
0.0104085
0.0129548
0.0161619
0.0177976
0.0168418
0.0139669
0.00714261
0.00502205
0.00442553
0.00440614
0.0048612
0.00517357
0.00539285
0.0054783
0.00549107
0.0054544
0.0054436
0.00555224
0.00584798
0.00643591
0.00762293
0.00990302
0.0142175
0.0212089
0.0295974
0.0138308
0.00641573
0.00498757
0.00480002
0.00537706
0.00616444
0.00677281
0.00709056
0.00718752
0.00702604
0.00654213
0.00592238
0.00527573
0.00484238
0.00468894
0.00492528
0.00636488
0.0103679
0.0208527
0.0373667
0.0135102
0.00573299
0.00465054
0.00455132
0.00515455
0.00593562
0.00660157
0.00704317
0.00722133
0.00718385
0.00678115
0.00613745
0.00535331
0.00457522
0.00413129
0.00405226
0.00497897
0.008533
0.0192889
0.0439894
0.0130811
0.00497093
0.00402581
0.00399646
0.00453642
0.00523248
0.00590763
0.00646248
0.00680019
0.006906
0.00673022
0.00629767
0.00566229
0.00492799
0.00429183
0.0040509
0.00473156
0.00808341
0.0187519
0.0501758
0.0126968
0.00489236
0.00354266
0.00343512
0.00373515
0.00428707
0.00490661
0.00551761
0.00603491
0.00639632
0.00653965
0.00645686
0.00616137
0.00570492
0.00521179
0.00501836
0.00552011
0.00897505
0.0198143
0.0570555
0.01193
0.00505385
0.00353412
0.00318845
0.00325853
0.00354278
0.00406044
0.00468798
0.00534869
0.00597294
0.00647904
0.00681413
0.00694766
0.00694718
0.00684371
0.00696353
0.00768339
0.0117058
0.0246732
0.0660067
0.0109025
0.00568633
0.00417178
0.00374666
0.00376079
0.00395096
0.0044065
0.00509035
0.00590437
0.00682004
0.00773524
0.00866101
0.00943512
0.0101627
0.0106058
0.0115563
0.0132622
0.0193507
0.0367225
0.0810571
0.00965811
0.00795601
0.00862561
0.00953042
0.0104645
0.0114835
0.0126894
0.0141248
0.0157025
0.0174572
0.0192197
0.0211803
0.0228811
0.0250359
0.0264145
0.0302886
0.0355525
0.0481592
0.0746573
0.110312
0.0399543
0.0701261
0.0914691
0.10272
0.110285
0.115871
0.120491
0.124274
0.12755
0.130267
0.132721
0.13495
0.137213
0.139566
0.142707
0.145653
0.149176
0.154103
0.170575
0.148661
)
;

boundaryField
{
    movingWall
    {
        Cmu             0.09;
        kappa           0.41;
        E               9.8;
        type            epsilonWallFunction;
        value           nonuniform List<scalar> 
20
(
0.0399543
0.0701261
0.0914691
0.10272
0.110285
0.115871
0.120491
0.124274
0.12755
0.130267
0.132721
0.13495
0.137213
0.139566
0.142707
0.145653
0.149176
0.154103
0.170575
0.148661
)
;
    }
    movingWallBottom
    {
        Cmu             0.09;
        kappa           0.41;
        E               9.8;
        type            epsilonWallFunction;
        value           nonuniform List<scalar> 
20
(
0.0399562
0.0700478
0.0914115
0.102766
0.110452
0.116146
0.12087
0.124725
0.128071
0.130822
0.133322
0.135555
0.13784
0.140169
0.143298
0.14623
0.149723
0.154627
0.171033
0.148967
)
;
    }
    fixedWalls
    {
        Cmu             0.09;
        kappa           0.41;
        E               9.8;
        type            epsilonWallFunction;
        value           nonuniform List<scalar> 
40
(
0.0399562
0.00971637
0.0109836
0.0120151
0.0128004
0.013198
0.0136503
0.0139323
0.0140294
0.01405
0.0140245
0.0139669
0.0138308
0.0135102
0.0130811
0.0126968
0.01193
0.0109025
0.00965811
0.0399543
0.148967
0.110516
0.0811296
0.0660578
0.0570285
0.0500636
0.0437329
0.036985
0.0287214
0.0159644
0.0168418
0.0295974
0.0373667
0.0439894
0.0501758
0.0570555
0.0660067
0.0810571
0.110312
0.148661
)
;
    }
    frontAndBack
    {
        type            empty;
    }
}


// ************************************************************************* //
