/*--------------------------------*- C++ -*----------------------------------*\
| =========                 |                                                 |
| \\      /  F ield         | OpenFOAM: The Open Source CFD Toolbox           |
|  \\    /   O peration     | Version:  4.1                                   |
|   \\  /    A nd           | Web:      www.OpenFOAM.org                      |
|    \\/     M anipulation  |                                                 |
\*---------------------------------------------------------------------------*/
FoamFile
{
    version     2.0;
    format      ascii;
    class       volScalarField;
    location    "9";
    object      k;
}
// * * * * * * * * * * * * * * * * * * * * * * * * * * * * * * * * * * * * * //

dimensions      [0 2 -2 0 0 0 0];

internalField   nonuniform List<scalar> 
400
(
0.0039605
0.00575823
0.00687637
0.0074346
0.00780082
0.00806666
0.00828397
0.00845915
0.00860981
0.00873264
0.00884356
0.00894204
0.00904223
0.00914381
0.0092794
0.00940555
0.00955473
0.00976227
0.0104411
0.00952257
0.001543
0.00166837
0.00194595
0.00211654
0.00223205
0.00235414
0.0025032
0.00268652
0.00289615
0.00312982
0.00336853
0.0036116
0.00381985
0.00403075
0.00412928
0.0043325
0.00451272
0.0050516
0.00643178
0.0078039
0.00167441
0.00164789
0.00177158
0.00186954
0.00194659
0.00207091
0.00224893
0.00247413
0.00272665
0.0029847
0.00321724
0.0034024
0.00352185
0.00353355
0.0034796
0.00336679
0.00315273
0.00334016
0.00428491
0.00635059
0.00177766
0.00168269
0.00176736
0.00188825
0.00207855
0.00233679
0.00263213
0.00293561
0.00321379
0.00343797
0.00358186
0.00362424
0.00358126
0.00345032
0.00320403
0.00293159
0.00263066
0.00275502
0.00348859
0.00553746
0.00185429
0.0019035
0.00199187
0.00212501
0.00237725
0.00269697
0.00303677
0.00335172
0.00359399
0.00374141
0.00377792
0.00370984
0.0035255
0.00324304
0.00288578
0.00254618
0.00229038
0.00246859
0.00317517
0.0050206
0.00189248
0.00210021
0.00214738
0.00228944
0.00260302
0.00296571
0.00330404
0.00357668
0.00376214
0.00383126
0.00377225
0.00358249
0.00328216
0.00290185
0.00249058
0.00215475
0.00200938
0.0022193
0.00297104
0.00460302
0.00193548
0.0023361
0.0022943
0.00236535
0.00269873
0.00306852
0.00338371
0.00359006
0.00367082
0.00365166
0.00348952
0.00321581
0.00285619
0.00244823
0.0020401
0.0018301
0.00177592
0.00209129
0.00290283
0.0042063
0.00196203
0.00256581
0.00235352
0.00234276
0.00258361
0.00286866
0.00306879
0.00315927
0.00317414
0.00305306
0.00282822
0.0025398
0.00222683
0.00193762
0.0017905
0.00173731
0.0017939
0.00216828
0.00292433
0.00376164
0.00197113
0.00274761
0.00213727
0.00194001
0.00193103
0.00203442
0.00207903
0.00209109
0.00203884
0.00194493
0.00184847
0.00176016
0.00171629
0.00170022
0.00173007
0.00183701
0.00205306
0.00246052
0.0028907
0.00317804
0.00197306
0.00288416
0.00200579
0.00158879
0.00143184
0.00137125
0.00134546
0.00133798
0.00134569
0.00138123
0.00143167
0.00150812
0.00160597
0.00173197
0.001892
0.00209759
0.00233392
0.00251631
0.00258254
0.00214843
0.00197066
0.00287554
0.00200708
0.00159681
0.00144499
0.00138856
0.00136512
0.00135856
0.00136608
0.00139588
0.00144276
0.00151235
0.00160608
0.0017257
0.0018813
0.00208712
0.00233016
0.00253506
0.00261611
0.00222656
0.00196525
0.00272633
0.00211549
0.00191694
0.0019089
0.00203063
0.00208804
0.00210869
0.00208151
0.00198501
0.00188812
0.00178527
0.00172561
0.00170093
0.00170155
0.00180462
0.00199739
0.00242189
0.00288856
0.00324244
0.00195246
0.00253218
0.00230637
0.00229063
0.00252443
0.00281451
0.00302836
0.00313091
0.00315495
0.00305678
0.00284609
0.00256326
0.00224929
0.00194845
0.0017858
0.00172653
0.00177372
0.00214252
0.00290743
0.00378751
0.00192217
0.00230091
0.00224759
0.00230599
0.00263074
0.00299778
0.00331395
0.00352616
0.00361232
0.00360573
0.00345577
0.00319348
0.00284473
0.00244538
0.00204282
0.00182579
0.00176807
0.00207575
0.00288517
0.00422275
0.00188126
0.00206757
0.00210311
0.00223366
0.00253892
0.00289641
0.00323124
0.00350242
0.00368923
0.0037652
0.00371647
0.00353888
0.00325169
0.0028833
0.00248269
0.00215332
0.00200884
0.00221571
0.00295872
0.0046099
0.00184425
0.00187702
0.00195409
0.00207843
0.00232285
0.0026343
0.00296632
0.00327585
0.00351822
0.00366908
0.00371238
0.00365318
0.00348069
0.0032108
0.00286404
0.00253288
0.00227837
0.00245031
0.00315502
0.00502219
0.00176924
0.00166117
0.00174078
0.00185205
0.0020339
0.00228352
0.00257014
0.00286629
0.00313996
0.00336338
0.00351023
0.00355961
0.00352231
0.00340267
0.00316551
0.00290265
0.00260672
0.00273224
0.00347267
0.0055346
0.00166613
0.00163244
0.00175026
0.00184809
0.00192029
0.00203647
0.00220455
0.00241903
0.0026617
0.00291276
0.00314151
0.00332724
0.00344914
0.00346973
0.00342052
0.00331661
0.00311238
0.00330422
0.00426517
0.0063468
0.00153682
0.00165734
0.00193028
0.00209845
0.00221008
0.00232618
0.00246777
0.0026427
0.00284313
0.0030683
0.00329891
0.00353701
0.00374121
0.00395282
0.00405404
0.00426474
0.00445457
0.00500943
0.00641578
0.00779427
0.00396037
0.00576252
0.00687926
0.00743239
0.00779293
0.0080539
0.00826659
0.00843872
0.00858636
0.00870789
0.00881689
0.00891536
0.00901474
0.00911752
0.00925383
0.00938075
0.0095314
0.00974014
0.0104224
0.00950951
)
;

boundaryField
{
    movingWall
    {
        type            kqRWallFunction;
        value           nonuniform List<scalar> 
20
(
0.00396037
0.00576252
0.00687926
0.00743239
0.00779293
0.0080539
0.00826659
0.00843872
0.00858636
0.00870789
0.00881689
0.00891536
0.00901474
0.00911752
0.00925383
0.00938075
0.0095314
0.00974014
0.0104224
0.00950951
)
;
    }
    movingWallBottom
    {
        type            kqRWallFunction;
        value           nonuniform List<scalar> 
20
(
0.0039605
0.00575823
0.00687637
0.0074346
0.00780082
0.00806666
0.00828397
0.00845915
0.00860981
0.00873264
0.00884356
0.00894204
0.00904223
0.00914381
0.0092794
0.00940555
0.00955473
0.00976227
0.0104411
0.00952257
)
;
    }
    fixedWalls
    {
        type            kqRWallFunction;
        value           nonuniform List<scalar> 
40
(
0.0039605
0.001543
0.00167441
0.00177766
0.00185429
0.00189248
0.00193548
0.00196203
0.00197113
0.00197306
0.00197066
0.00196525
0.00195246
0.00192217
0.00188126
0.00184425
0.00176924
0.00166613
0.00153682
0.00396037
0.00952257
0.0078039
0.00635059
0.00553746
0.0050206
0.00460302
0.0042063
0.00376164
0.00317804
0.00214843
0.00222656
0.00324244
0.00378751
0.00422275
0.0046099
0.00502219
0.0055346
0.0063468
0.00779427
0.00950951
)
;
    }
    frontAndBack
    {
        type            empty;
    }
}


// ************************************************************************* //
