/*--------------------------------*- C++ -*----------------------------------*\
| =========                 |                                                 |
| \\      /  F ield         | OpenFOAM: The Open Source CFD Toolbox           |
|  \\    /   O peration     | Version:  4.1                                   |
|   \\  /    A nd           | Web:      www.OpenFOAM.org                      |
|    \\/     M anipulation  |                                                 |
\*---------------------------------------------------------------------------*/
FoamFile
{
    version     2.0;
    format      ascii;
    class       volScalarField;
    location    "9";
    object      nut;
}
// * * * * * * * * * * * * * * * * * * * * * * * * * * * * * * * * * * * * * //

dimensions      [0 2 -1 0 0 0 0];

internalField   nonuniform List<scalar> 
400
(
3.53312e-05
4.26016e-05
4.65544e-05
4.84071e-05
4.95849e-05
5.04228e-05
5.10975e-05
5.16349e-05
5.20928e-05
5.24631e-05
5.27952e-05
5.30884e-05
5.3385e-05
5.36841e-05
5.40806e-05
5.4447e-05
5.48771e-05
5.547e-05
5.73662e-05
5.47848e-05
2.20531e-05
3.1347e-05
3.93353e-05
4.20426e-05
4.24904e-05
4.29659e-05
4.38372e-05
4.52652e-05
4.72275e-05
4.95642e-05
5.21002e-05
5.43659e-05
5.63038e-05
5.73775e-05
5.71665e-05
5.50924e-05
5.10624e-05
4.74075e-05
4.97524e-05
4.95951e-05
2.29731e-05
4.26881e-05
6.71464e-05
8.30182e-05
8.94393e-05
9.58909e-05
0.000100765
0.000105187
0.000109891
0.000113961
0.000116823
0.000116941
0.000115284
0.000108091
0.000100709
8.6917e-05
6.66352e-05
5.14795e-05
4.48567e-05
4.47395e-05
2.36707e-05
4.99976e-05
7.86072e-05
9.90427e-05
0.00011704
0.000135309
0.000149154
0.000160286
0.000168253
0.000172564
0.000172988
0.00016886
0.000162277
0.000151061
0.000132827
0.000109604
8.02277e-05
5.79212e-05
4.4285e-05
4.17772e-05
2.41754e-05
6.59923e-05
9.88178e-05
0.000115549
0.000132566
0.000148341
0.000163983
0.000177427
0.000186584
0.000191029
0.000190919
0.000186938
0.000177613
0.000162924
0.000141795
0.000115141
8.48494e-05
6.05915e-05
4.5401e-05
3.97798e-05
2.4423e-05
7.85563e-05
0.000100691
0.000114886
0.000130463
0.00014665
0.000161011
0.000172351
0.000181459
0.000185541
0.000184935
0.000178714
0.00016739
0.000150903
0.000128015
0.00010162
7.5719e-05
5.41015e-05
4.1913e-05
3.80895e-05
2.46988e-05
8.43668e-05
9.93821e-05
0.000107595
0.000123206
0.00013842
0.000151366
0.000159703
0.000162813
0.000162182
0.000157122
0.000147624
0.00013368
0.000115017
8.84562e-05
7.26295e-05
5.56899e-05
4.52e-05
3.88346e-05
3.64111e-05
2.48675e-05
9.11741e-05
9.79679e-05
0.000100117
0.000108238
0.000116652
0.000121796
0.000123659
0.000123326
0.000117185
0.000108175
9.63517e-05
8.28745e-05
6.7814e-05
5.95259e-05
5.29675e-05
4.37288e-05
3.95544e-05
3.6362e-05
3.44327e-05
2.4925e-05
9.42803e-05
8.08877e-05
7.55006e-05
7.50934e-05
7.58429e-05
7.48994e-05
7.31011e-05
6.86129e-05
6.23157e-05
5.64195e-05
5.08377e-05
4.67565e-05
4.31195e-05
4.00698e-05
3.80193e-05
3.66247e-05
3.72664e-05
3.55356e-05
3.16487e-05
2.49372e-05
9.90807e-05
7.46295e-05
6.07334e-05
5.38994e-05
5.02122e-05
4.7103e-05
4.40025e-05
4.14901e-05
3.99228e-05
3.86626e-05
3.79821e-05
3.75601e-05
3.73868e-05
3.7421e-05
3.7738e-05
3.76892e-05
3.56118e-05
3.4379e-05
2.60215e-05
2.49218e-05
9.87717e-05
7.4678e-05
6.10389e-05
5.44465e-05
5.09755e-05
4.78299e-05
4.47815e-05
4.22625e-05
4.04618e-05
3.91096e-05
3.82217e-05
3.77183e-05
3.73924e-05
3.73265e-05
3.76658e-05
3.7721e-05
3.57869e-05
3.46094e-05
2.64924e-05
2.48873e-05
9.36575e-05
8.02017e-05
7.47295e-05
7.44301e-05
7.63415e-05
7.58453e-05
7.42076e-05
7.11794e-05
6.45819e-05
5.88239e-05
5.26941e-05
4.82681e-05
4.45258e-05
4.04877e-05
3.84496e-05
3.62578e-05
3.713e-05
3.54068e-05
3.19692e-05
2.48062e-05
8.99466e-05
9.59867e-05
9.8381e-05
0.000106666
0.000115653
0.000121868
0.000124424
0.000124637
0.000119691
0.000111434
9.98463e-05
8.63083e-05
7.05602e-05
6.12115e-05
5.44705e-05
4.44859e-05
3.98478e-05
3.64836e-05
3.45515e-05
2.4613e-05
8.31111e-05
9.77625e-05
0.000105152
0.000120839
0.000136263
0.000149722
0.000158883
0.000162629
0.000162882
0.0001585
0.000149549
0.000136051
0.000117631
9.09111e-05
7.40366e-05
5.65068e-05
4.54456e-05
3.88399e-05
3.64826e-05
2.43499e-05
7.73973e-05
9.88813e-05
0.000112357
0.000127887
0.000144296
0.000159063
0.000170836
0.000180133
0.000184753
0.000184703
0.000178976
0.000168062
0.000151828
0.000129254
0.000103017
7.67592e-05
5.46607e-05
4.20153e-05
3.81182e-05
2.41093e-05
6.48129e-05
9.70067e-05
0.00011318
0.000130009
0.000145684
0.000161397
0.000175041
0.000184594
0.00018942
0.000189667
0.000186021
0.000176968
0.000162637
0.000141649
0.000115056
8.4634e-05
6.02071e-05
4.52136e-05
3.97861e-05
2.36142e-05
4.91415e-05
7.71696e-05
9.68212e-05
0.000114256
0.000132467
0.000146415
0.000157723
0.000165899
0.000170453
0.00017116
0.000167355
0.000160716
0.000149994
0.000131777
0.000108894
7.95936e-05
5.73957e-05
4.3989e-05
4.17664e-05
2.29159e-05
4.21778e-05
6.60886e-05
8.20434e-05
8.82464e-05
9.44705e-05
9.92633e-05
0.000103461
0.000107991
0.000111961
0.000114827
0.000115038
0.000113479
0.000106617
9.92854e-05
8.56663e-05
6.57375e-05
5.07789e-05
4.45844e-05
4.47261e-05
2.20087e-05
3.10721e-05
3.88772e-05
4.1584e-05
4.20087e-05
4.24085e-05
4.31926e-05
4.44995e-05
4.63305e-05
4.8536e-05
5.09611e-05
5.31598e-05
5.50541e-05
5.61687e-05
5.59985e-05
5.4044e-05
5.02324e-05
4.68964e-05
4.96215e-05
4.95643e-05
3.53305e-05
4.26174e-05
4.65641e-05
4.83997e-05
4.95596e-05
5.03825e-05
5.10434e-05
5.15721e-05
5.20213e-05
5.23882e-05
5.27151e-05
5.30087e-05
5.33033e-05
5.36064e-05
5.40056e-05
5.43748e-05
5.48097e-05
5.54067e-05
5.73145e-05
5.4747e-05
)
;

boundaryField
{
    movingWall
    {
        type            nutkWallFunction;
        Cmu             0.09;
        kappa           0.41;
        E               9.8;
        value           nonuniform List<scalar> 
20
(
0
0
0
1.87616e-07
3.80042e-07
5.16139e-07
6.25187e-07
7.1226e-07
7.86131e-07
8.46395e-07
9.00033e-07
9.48161e-07
9.96422e-07
1.04602e-06
1.11129e-06
1.17158e-06
1.24252e-06
1.33977e-06
1.6495e-06
1.23225e-06
)
;
    }
    movingWallBottom
    {
        type            nutkWallFunction;
        Cmu             0.09;
        kappa           0.41;
        E               9.8;
        value           nonuniform List<scalar> 
20
(
0
0
0
1.88812e-07
3.84194e-07
5.22725e-07
6.34025e-07
7.22526e-07
7.97798e-07
8.58606e-07
9.13096e-07
9.61148e-07
1.00972e-06
1.05865e-06
1.12347e-06
1.1833e-06
1.25345e-06
1.35001e-06
1.65782e-06
1.23838e-06
)
;
    }
    fixedWalls
    {
        type            nutkWallFunction;
        Cmu             0.09;
        kappa           0.41;
        E               9.8;
        value           nonuniform List<scalar> 
40
(
0
0
0
0
0
0
0
0
0
0
0
0
0
0
0
0
0
0
0
0
1.23838e-06
3.85812e-07
0
0
0
0
0
0
0
0
0
0
0
0
0
0
0
0
3.80743e-07
1.23225e-06
)
;
    }
    frontAndBack
    {
        type            empty;
    }
}


// ************************************************************************* //
