/*--------------------------------*- C++ -*----------------------------------*\
| =========                 |                                                 |
| \\      /  F ield         | OpenFOAM: The Open Source CFD Toolbox           |
|  \\    /   O peration     | Version:  4.1                                   |
|   \\  /    A nd           | Web:      www.OpenFOAM.org                      |
|    \\/     M anipulation  |                                                 |
\*---------------------------------------------------------------------------*/
FoamFile
{
    version     2.0;
    format      ascii;
    class       volScalarField;
    location    "9";
    object      p;
}
// * * * * * * * * * * * * * * * * * * * * * * * * * * * * * * * * * * * * * //

dimensions      [0 2 -2 0 0 0 0];

internalField   nonuniform List<scalar> 
400
(
1.70713e-08
0.000385488
-0.00361139
-0.0074647
-0.0107881
-0.0136193
-0.0160012
-0.0179417
-0.0194622
-0.0206007
-0.0213996
-0.0218635
-0.0219455
-0.0215229
-0.0203867
-0.0181217
-0.0133656
-0.00497633
0.00811321
0.0286892
-0.00602425
-0.00554905
-0.00729676
-0.0098094
-0.012535
-0.0150714
-0.0172362
-0.0189858
-0.0203485
-0.0213757
-0.0221143
-0.0225756
-0.0227339
-0.0224797
-0.0215665
-0.0196348
-0.0163625
-0.0107345
-0.00259216
0.0162526
-0.0068043
-0.00726327
-0.00896439
-0.0113059
-0.0137917
-0.0160547
-0.0179457
-0.0194611
-0.0206523
-0.0215667
-0.0222383
-0.0226613
-0.022822
-0.0226207
-0.0220411
-0.0206937
-0.0185458
-0.0148423
-0.0110328
-8.24334e-05
-0.00813823
-0.00904413
-0.0108049
-0.0130833
-0.0153426
-0.0173143
-0.0189229
-0.0201961
-0.0211917
-0.0219566
-0.0225204
-0.0228894
-0.0230507
-0.0229371
-0.0224891
-0.0215134
-0.020081
-0.0172802
-0.0158885
-0.0095194
-0.00857213
-0.00986327
-0.0117214
-0.0139905
-0.0161589
-0.0180102
-0.0194931
-0.0206416
-0.0215197
-0.0221836
-0.0226697
-0.0229898
-0.023131
-0.0230418
-0.022662
-0.0218813
-0.0208292
-0.0182498
-0.0173186
-0.0123766
-0.00779078
-0.00951369
-0.011585
-0.0139966
-0.0162513
-0.0181505
-0.0196526
-0.0207938
-0.0216411
-0.0222577
-0.02269
-0.0229556
-0.0230428
-0.0229032
-0.0224713
-0.0216696
-0.0204479
-0.017944
-0.0157729
-0.0109237
-0.00585239
-0.00789275
-0.010299
-0.0130053
-0.0155459
-0.017677
-0.019344
-0.0205867
-0.0214834
-0.0221019
-0.0224957
-0.0226919
-0.022677
-0.0223986
-0.0218027
-0.0207439
-0.0189039
-0.015762
-0.0118582
-0.00670246
-0.00300654
-0.00537197
-0.00813214
-0.0112203
-0.0141675
-0.0166555
-0.018598
-0.0200248
-0.0210212
-0.0216661
-0.0220234
-0.0221223
-0.0219531
-0.021474
-0.0205697
-0.0189356
-0.0160614
-0.0115526
-0.00577253
-0.000461911
-7.16424e-05
-0.00260025
-0.00561676
-0.00903315
-0.0123683
-0.0152473
-0.0175277
-0.0191984
-0.0203414
-0.0210501
-0.0213933
-0.0214003
-0.0210745
-0.0203414
-0.0189452
-0.0164153
-0.0121682
-0.00591014
0.0018913
0.006327
0.0018487
-0.000753939
-0.00390426
-0.00754478
-0.01113
-0.0142124
-0.0166706
-0.0185047
-0.0197816
-0.0205685
-0.020916
-0.020851
-0.0203909
-0.0194062
-0.0175358
-0.0141729
-0.00871201
-0.00111578
0.007189
0.0112439
0.00179297
-0.000799781
-0.00394472
-0.0075871
-0.0111815
-0.0142694
-0.0167315
-0.0185683
-0.019845
-0.0206317
-0.0209831
-0.0209302
-0.0204733
-0.0194889
-0.017638
-0.0143112
-0.00890483
-0.00137502
0.00687707
0.0109442
-0.000190165
-0.00269453
-0.00569679
-0.00911635
-0.0124663
-0.0153629
-0.017664
-0.0193535
-0.0205116
-0.0212272
-0.0215703
-0.0215749
-0.0212471
-0.0205181
-0.0191468
-0.0166738
-0.0125246
-0.00640585
0.0012205
0.00568777
-0.00312739
-0.00546168
-0.00820604
-0.0113003
-0.0142699
-0.0167893
-0.0187629
-0.0202132
-0.0212269
-0.0218798
-0.0222364
-0.0223298
-0.0221525
-0.0216658
-0.0207626
-0.0191598
-0.0163648
-0.011981
-0.0063852
-0.00112168
-0.00593775
-0.00795259
-0.0103501
-0.0130723
-0.0156443
-0.0178124
-0.019513
-0.0207801
-0.0216908
-0.0223134
-0.0227026
-0.0228864
-0.0228547
-0.0225621
-0.0219557
-0.0209032
-0.0191089
-0.0160399
-0.0122804
-0.00721575
-0.00782927
-0.00953184
-0.0116033
-0.0140387
-0.0163309
-0.0182709
-0.0198093
-0.020977
-0.0218387
-0.022458
-0.0228834
-0.0231336
-0.0232005
-0.0230396
-0.0225887
-0.0217747
-0.0205666
-0.0180789
-0.0160233
-0.0112477
-0.00856495
-0.00984117
-0.0117052
-0.0139989
-0.0162075
-0.0181035
-0.0196265
-0.0208046
-0.0216992
-0.0223669
-0.022846
-0.0231501
-0.0232696
-0.023155
-0.0227502
-0.0219484
-0.0208786
-0.0182966
-0.0174473
-0.0125217
-0.00809792
-0.00899125
-0.0107558
-0.0130581
-0.0153578
-0.017376
-0.0190271
-0.0203323
-0.0213471
-0.0221185
-0.0226778
-0.0230325
-0.0231727
-0.0230297
-0.0225518
-0.0215446
-0.0200839
-0.0172753
-0.015896
-0.00954285
-0.00675084
-0.00719254
-0.00889485
-0.011256
-0.0137766
-0.0160831
-0.018017
-0.0195671
-0.0207813
-0.0217058
-0.0223756
-0.0227857
-0.0229248
-0.0226954
-0.022084
-0.0206993
-0.0185165
-0.0147921
-0.0109619
-1.21964e-05
-0.00597724
-0.00547872
-0.00721464
-0.00973799
-0.0124919
-0.0150682
-0.0172766
-0.0190653
-0.0204572
-0.0215004
-0.0222419
-0.0226939
-0.0228322
-0.0225482
-0.0215953
-0.0196203
-0.0163053
-0.0106417
-0.00246188
0.0163898
3.03594e-05
0.000434742
-0.00353995
-0.00739653
-0.0107446
-0.0136142
-0.0160391
-0.0180189
-0.0195688
-0.0207236
-0.0215246
-0.0219776
-0.0220372
-0.021583
-0.0204064
-0.0180955
-0.0132875
-0.0048525
0.0082752
0.0288697
)
;

boundaryField
{
    movingWall
    {
        type            zeroGradient;
    }
    movingWallBottom
    {
        type            zeroGradient;
    }
    fixedWalls
    {
        type            zeroGradient;
    }
    frontAndBack
    {
        type            empty;
    }
}


// ************************************************************************* //
