/*--------------------------------*- C++ -*----------------------------------*\
| =========                 |                                                 |
| \\      /  F ield         | OpenFOAM: The Open Source CFD Toolbox           |
|  \\    /   O peration     | Version:  4.1                                   |
|   \\  /    A nd           | Web:      www.OpenFOAM.org                      |
|    \\/     M anipulation  |                                                 |
\*---------------------------------------------------------------------------*/
FoamFile
{
    version     2.0;
    format      ascii;
    class       surfaceScalarField;
    location    "9";
    object      phi;
}
// * * * * * * * * * * * * * * * * * * * * * * * * * * * * * * * * * * * * * //

dimensions      [0 3 -1 0 0 0 0];

internalField   nonuniform List<scalar> 
760
(
3.21184e-06
-3.21185e-06
5.42121e-06
-2.20937e-06
7.12666e-06
-1.70544e-06
8.55955e-06
-1.4329e-06
9.75807e-06
-1.19852e-06
1.07425e-05
-9.84433e-07
1.15436e-05
-8.0112e-07
1.22001e-05
-6.56439e-07
1.27439e-05
-5.43844e-07
1.3198e-05
-4.54137e-07
1.35743e-05
-3.76266e-07
1.38739e-05
-2.99565e-07
1.40944e-05
-2.20479e-07
1.42012e-05
-1.06843e-07
1.41956e-05
5.58028e-09
1.3848e-05
3.47663e-07
1.31205e-05
7.27493e-07
1.12282e-05
1.89222e-06
7.72811e-06
3.50013e-06
7.72811e-06
1.01751e-06
-4.22935e-06
2.5127e-06
-3.70457e-06
3.90193e-06
-3.09467e-06
4.99849e-06
-2.52946e-06
5.82223e-06
-2.02226e-06
6.43172e-06
-1.59392e-06
6.87989e-06
-1.24929e-06
7.20501e-06
-9.81553e-07
7.43991e-06
-7.78745e-07
7.60508e-06
-6.19307e-07
7.72022e-06
-4.91414e-07
7.78747e-06
-3.66813e-07
7.80784e-06
-2.40842e-07
7.7164e-06
-1.5406e-08
7.53019e-06
1.91795e-07
7.18271e-06
6.95141e-07
6.52645e-06
1.38375e-06
5.34707e-06
3.0716e-06
2.93015e-06
5.91705e-06
1.06583e-05
9.38357e-07
-5.16771e-06
2.08317e-06
-4.84938e-06
3.03796e-06
-4.04945e-06
3.74905e-06
-3.24055e-06
4.24794e-06
-2.52115e-06
4.57866e-06
-1.92464e-06
4.78164e-06
-1.45228e-06
4.89236e-06
-1.09227e-06
4.93695e-06
-8.23332e-07
4.9363e-06
-6.18658e-07
4.89769e-06
-4.52807e-07
4.82662e-06
-2.95738e-07
4.7084e-06
-1.22621e-07
4.56673e-06
1.26261e-07
4.28735e-06
4.71174e-07
3.90077e-06
1.08172e-06
3.23436e-06
2.05016e-06
2.39843e-06
3.90753e-06
1.08774e-06
7.22774e-06
1.1746e-05
6.97596e-07
-5.86531e-06
1.35202e-06
-5.5038e-06
1.92202e-06
-4.61945e-06
2.35763e-06
-3.67617e-06
2.65619e-06
-2.8197e-06
2.84097e-06
-2.10941e-06
2.94183e-06
-1.55314e-06
2.98371e-06
-1.13415e-06
2.98393e-06
-8.23546e-07
2.95402e-06
-5.88753e-07
2.89814e-06
-3.96922e-07
2.81566e-06
-2.1326e-07
2.69682e-06
-3.7801e-09
2.53586e-06
2.8722e-07
2.30365e-06
7.03377e-07
2.00299e-06
1.38238e-06
1.53591e-06
2.51724e-06
1.00272e-06
4.44072e-06
3.99216e-07
7.83125e-06
1.21452e-05
3.35454e-07
-6.20076e-06
5.25607e-07
-5.69396e-06
7.17624e-07
-4.81147e-06
8.8085e-07
-3.8394e-06
9.94249e-07
-2.9331e-06
1.06166e-06
-2.17682e-06
1.09401e-06
-1.58549e-06
1.10147e-06
-1.14161e-06
1.09087e-06
-8.12945e-07
1.06615e-06
-5.64029e-07
1.02762e-06
-3.58399e-07
9.72931e-07
-1.58567e-07
8.95361e-07
7.37897e-08
7.90845e-07
3.91737e-07
6.48132e-07
8.4609e-07
4.67304e-07
1.56321e-06
2.97539e-07
2.68701e-06
-1.06136e-07
4.8444e-06
-1.97212e-07
7.92233e-06
1.1948e-05
-2.25228e-07
-5.97553e-06
-4.28203e-07
-5.49098e-06
-5.7298e-07
-4.66669e-06
-6.76426e-07
-3.73595e-06
-7.56566e-07
-2.85296e-06
-8.17173e-07
-2.11622e-06
-8.60676e-07
-1.54199e-06
-8.90194e-07
-1.1121e-06
-9.1006e-07
-7.93078e-07
-9.23885e-07
-5.50205e-07
-9.36051e-07
-3.46233e-07
-9.51094e-07
-1.43523e-07
-9.73484e-07
9.61792e-08
-1.00065e-06
4.18905e-07
-1.03157e-06
8.77012e-07
-1.05404e-06
1.58567e-06
-1.07551e-06
2.70848e-06
-1.00589e-06
4.77478e-06
-8.83544e-07
7.79998e-06
1.10645e-05
-7.27087e-07
-5.24844e-06
-1.41942e-06
-4.79865e-06
-1.94274e-06
-4.14337e-06
-2.34113e-06
-3.33757e-06
-2.63101e-06
-2.56308e-06
-2.83425e-06
-1.91298e-06
-2.9719e-06
-1.40434e-06
-3.05997e-06
-1.02403e-06
-3.1122e-06
-7.40842e-07
-3.13807e-06
-5.2434e-07
-3.14536e-06
-3.38942e-07
-3.14109e-06
-1.47795e-07
-3.12898e-06
8.40684e-08
-3.09463e-06
3.84562e-07
-3.03488e-06
8.17256e-07
-2.93343e-06
1.48422e-06
-2.7857e-06
2.56075e-06
-2.41541e-06
4.40449e-06
-1.76838e-06
7.15294e-06
9.29608e-06
-1.30627e-06
-3.94218e-06
-2.48435e-06
-3.62057e-06
-3.43242e-06
-3.19529e-06
-4.16474e-06
-2.60525e-06
-4.70588e-06
-2.02195e-06
-5.09259e-06
-1.52627e-06
-5.36637e-06
-1.13056e-06
-5.5597e-06
-8.3069e-07
-5.69588e-06
-6.0466e-07
-5.79174e-06
-4.28477e-07
-5.85852e-06
-2.72168e-07
-5.90395e-06
-1.02368e-07
-5.91899e-06
9.91096e-08
-5.88021e-06
3.45785e-07
-5.75896e-06
6.96006e-07
-5.51147e-06
1.23673e-06
-5.06521e-06
2.11448e-06
-4.19236e-06
3.53165e-06
-2.50456e-06
5.46514e-06
6.79152e-06
-1.82863e-06
-2.11354e-06
-3.51041e-06
-1.9388e-06
-4.96821e-06
-1.73749e-06
-6.14858e-06
-1.42487e-06
-7.05452e-06
-1.116e-06
-7.72667e-06
-8.54123e-07
-8.21667e-06
-6.4057e-07
-8.57782e-06
-4.69538e-07
-8.84767e-06
-3.3481e-07
-9.04809e-06
-2.28056e-07
-9.18753e-06
-1.32727e-07
-9.26127e-06
-2.86263e-08
-9.24379e-06
8.16274e-08
-9.11303e-06
2.15022e-07
-8.81712e-06
4.00094e-07
-8.26773e-06
6.87351e-07
-7.31528e-06
1.16203e-06
-5.71368e-06
1.93004e-06
-3.29594e-06
3.0474e-06
3.49558e-06
-2.1723e-06
5.87568e-08
-4.1681e-06
5.70046e-08
-5.96982e-06
6.4226e-08
-7.4671e-06
7.2405e-08
-8.65823e-06
7.51241e-08
-9.58761e-06
7.52609e-08
-1.02959e-05
6.76795e-08
-1.08238e-05
5.84364e-08
-1.12042e-05
4.55869e-08
-1.14648e-05
3.25402e-08
-1.16174e-05
1.98183e-08
-1.16515e-05
5.54482e-09
-1.15616e-05
-8.3387e-09
-1.13273e-05
-1.92125e-08
-1.08933e-05
-3.39004e-08
-1.01566e-05
-4.93673e-08
-8.92176e-06
-7.28366e-08
-6.88684e-06
-1.0488e-07
-3.68965e-06
-1.4978e-07
-1.94071e-07
-2.15414e-06
2.2129e-06
-4.13594e-06
2.03881e-06
-5.92373e-06
1.85201e-06
-7.40805e-06
1.55673e-06
-8.58594e-06
1.25301e-06
-9.49816e-06
9.87487e-07
-1.01926e-05
7.62098e-07
-1.07099e-05
5.75781e-07
-1.1084e-05
4.19687e-07
-1.13415e-05
2.90036e-07
-1.14918e-05
1.70086e-07
-1.1525e-05
3.87954e-08
-1.14379e-05
-9.55171e-08
-1.12069e-05
-2.50185e-07
-1.07798e-05
-4.60973e-07
-1.00522e-05
-7.76966e-07
-8.83124e-06
-1.29381e-06
-6.81458e-06
-2.12155e-06
-3.64609e-06
-3.31826e-06
-3.84016e-06
-1.79899e-06
4.01189e-06
-3.45827e-06
3.69809e-06
-4.89582e-06
3.28956e-06
-6.0557e-06
2.71661e-06
-6.94162e-06
2.13893e-06
-7.58945e-06
1.63532e-06
-8.05295e-06
1.22559e-06
-8.38471e-06
9.07542e-07
-8.62572e-06
6.60704e-07
-8.80076e-06
4.65076e-07
-8.92069e-06
2.90009e-07
-8.98526e-06
1.03365e-07
-8.96865e-06
-1.12128e-07
-8.84336e-06
-3.75465e-07
-8.56243e-06
-7.41912e-07
-8.03747e-06
-1.30192e-06
-7.12395e-06
-2.20733e-06
-5.57366e-06
-3.67184e-06
-3.21823e-06
-5.6737e-06
-7.05839e-06
-1.27935e-06
5.29124e-06
-2.44041e-06
4.85914e-06
-3.37512e-06
4.22427e-06
-4.09222e-06
3.43371e-06
-4.61459e-06
2.66129e-06
-4.98033e-06
2.00107e-06
-5.23102e-06
1.47628e-06
-5.40026e-06
1.07678e-06
-5.51335e-06
7.73797e-07
-5.58719e-06
5.38917e-07
-5.63396e-06
3.36773e-07
-5.66296e-06
1.32372e-07
-5.66632e-06
-1.08771e-07
-5.62231e-06
-4.1948e-07
-5.50448e-06
-8.59735e-07
-5.27172e-06
-1.53468e-06
-4.85887e-06
-2.62018e-06
-4.04492e-06
-4.48579e-06
-2.43608e-06
-7.28254e-06
-9.49447e-06
-7.06289e-07
5.99753e-06
-1.3837e-06
5.53655e-06
-1.89386e-06
4.73444e-06
-2.27804e-06
3.81788e-06
-2.55217e-06
2.93543e-06
-2.73979e-06
2.18869e-06
-2.86245e-06
1.59894e-06
-2.93675e-06
1.15108e-06
-2.97722e-06
8.14267e-07
-2.99334e-06
5.55035e-07
-2.99312e-06
3.36556e-07
-2.98333e-06
1.2258e-07
-2.96586e-06
-1.2624e-07
-2.92962e-06
-4.55721e-07
-2.86978e-06
-9.19572e-07
-2.77106e-06
-1.6334e-06
-2.63218e-06
-2.75906e-06
-2.28257e-06
-4.8354e-06
-1.69751e-06
-7.8676e-06
-1.1192e-05
-2.07895e-07
6.20543e-06
-3.97248e-07
5.7259e-06
-5.29789e-07
4.86698e-06
-6.18936e-07
3.90703e-06
-6.85091e-07
3.00158e-06
-7.33402e-07
2.237e-06
-7.66621e-07
1.63216e-06
-7.88099e-07
1.17255e-06
-8.02193e-07
8.28362e-07
-8.12433e-07
5.65274e-07
-8.23192e-07
3.47316e-07
-8.38359e-07
1.37746e-07
-8.62107e-07
-1.02492e-07
-8.92293e-07
-4.25536e-07
-9.28115e-07
-8.8375e-07
-9.58031e-07
-1.60348e-06
-9.83006e-07
-2.73409e-06
-9.32581e-07
-4.88583e-06
-8.38324e-07
-7.96186e-06
-1.20303e-05
3.48559e-07
5.85687e-06
5.51712e-07
5.52275e-06
7.57368e-07
4.66132e-06
9.345e-07
3.7299e-06
1.06112e-06
2.87497e-06
1.13979e-06
2.15833e-06
1.18072e-06
1.59123e-06
1.19388e-06
1.15939e-06
1.18625e-06
8.35991e-07
1.16204e-06
5.89483e-07
1.12174e-06
3.8762e-07
1.06379e-06
1.95693e-07
9.81497e-07
-2.01981e-08
8.71584e-07
-3.15623e-07
7.22866e-07
-7.35032e-07
5.36215e-07
-1.41683e-06
3.51492e-07
-2.54937e-06
-6.95458e-08
-4.46479e-06
-1.54537e-07
-7.87686e-06
-1.21848e-05
7.04415e-07
5.15245e-06
1.37166e-06
4.85551e-06
1.95528e-06
4.0777e-06
2.40671e-06
3.27847e-06
2.72035e-06
2.56132e-06
2.91739e-06
1.96129e-06
3.02694e-06
1.48168e-06
3.07384e-06
1.11249e-06
3.07566e-06
8.3417e-07
3.04448e-06
6.20668e-07
2.98481e-06
4.47283e-07
2.89688e-06
2.83625e-07
2.77017e-06
1.0651e-07
2.60201e-06
-1.47463e-07
2.36066e-06
-4.93679e-07
2.04985e-06
-1.10602e-06
1.57243e-06
-2.07194e-06
1.03864e-06
-3.931e-06
4.1354e-07
-7.25177e-06
-1.17713e-05
9.38054e-07
4.2144e-06
2.09155e-06
3.70201e-06
3.0614e-06
3.10785e-06
3.78896e-06
2.55091e-06
4.30382e-06
2.04646e-06
4.64846e-06
1.61665e-06
4.86183e-06
1.26831e-06
4.97894e-06
9.95378e-07
5.0257e-06
7.87408e-07
5.02363e-06
6.22745e-07
4.98022e-06
4.90688e-07
4.90215e-06
3.61692e-07
4.77584e-06
2.32825e-07
4.62561e-06
2.76919e-09
4.3344e-06
-2.0247e-07
3.93795e-06
-7.09574e-07
3.26254e-06
-1.39653e-06
2.41864e-06
-3.0871e-06
1.09757e-06
-5.93071e-06
-1.06737e-05
1.01014e-06
3.20426e-06
2.50726e-06
2.20489e-06
3.90692e-06
1.70819e-06
5.01723e-06
1.4406e-06
5.85588e-06
1.20781e-06
6.47906e-06
9.93481e-07
6.93823e-06
8.09147e-07
7.27117e-06
6.62431e-07
7.51038e-06
5.48202e-07
7.67681e-06
4.56311e-07
7.79016e-06
3.77335e-07
7.85337e-06
2.98484e-07
7.8672e-06
2.19002e-07
7.76654e-06
1.03422e-07
7.57238e-06
-8.3108e-09
7.21665e-06
-3.53845e-07
6.55233e-06
-7.32204e-07
5.36445e-06
-1.89922e-06
2.93979e-06
-3.50605e-06
-7.73394e-06
3.20426e-06
5.40915e-06
7.11734e-06
8.55794e-06
9.76575e-06
1.07592e-05
1.15684e-05
1.22308e-05
1.2779e-05
1.32353e-05
1.36127e-05
1.39111e-05
1.41301e-05
1.42336e-05
1.42253e-05
1.38714e-05
1.31392e-05
1.124e-05
7.73394e-06
)
;

boundaryField
{
    movingWall
    {
        type            calculated;
        value           uniform 0;
    }
    movingWallBottom
    {
        type            calculated;
        value           uniform 0;
    }
    fixedWalls
    {
        type            calculated;
        value           uniform 0;
    }
    frontAndBack
    {
        type            empty;
        value           nonuniform 0();
    }
}


// ************************************************************************* //
