/*--------------------------------*- C++ -*----------------------------------*\
| =========                 |                                                 |
| \\      /  F ield         | OpenFOAM: The Open Source CFD Toolbox           |
|  \\    /   O peration     | Version:  4.1                                   |
|   \\  /    A nd           | Web:      www.OpenFOAM.org                      |
|    \\/     M anipulation  |                                                 |
\*---------------------------------------------------------------------------*/
FoamFile
{
    version     2.0;
    format      ascii;
    class       volVectorField;
    location    "9";
    object      U;
}
// * * * * * * * * * * * * * * * * * * * * * * * * * * * * * * * * * * * * * //

dimensions      [0 1 -1 0 0 0 0];

internalField   nonuniform List<vector> 
400
(
(0.06369 -0.0988541 0)
(0.07748 -0.0639878 0)
(0.123614 -0.0435505 0)
(0.158144 -0.0339927 0)
(0.18465 -0.0280751 0)
(0.206162 -0.0236408 0)
(0.223627 -0.0200156 0)
(0.238371 -0.0171142 0)
(0.250081 -0.0146641 0)
(0.260173 -0.0127152 0)
(0.267803 -0.0108863 0)
(0.27463 -0.00939608 0)
(0.278964 -0.00765354 0)
(0.282582 -0.00610895 0)
(0.282801 -0.00368846 0)
(0.27955 -0.000522756 0)
(0.269152 0.00135939 0)
(0.250396 0.0117072 0)
(0.18883 0.0225166 0)
(0.172581 0.11743 0)
(0.0155706 -0.0514083 0)
(0.0309891 -0.042085 0)
(0.064 -0.0368204 0)
(0.088703 -0.0315869 0)
(0.108257 -0.0261634 0)
(0.123043 -0.021054 0)
(0.133806 -0.0166602 0)
(0.141664 -0.0131799 0)
(0.147018 -0.0106085 0)
(0.151004 -0.00855497 0)
(0.153306 -0.0069511 0)
(0.155282 -0.00513527 0)
(0.155376 -0.00350369 0)
(0.155419 1.63723e-05 0)
(0.151145 0.00304293 0)
(0.147983 0.0113767 0)
(0.133619 0.0213938 0)
(0.126509 0.0501422 0)
(0.0651404 0.0939697 0)
(0.0899949 0.16449 0)
(0.0110469 -0.100993 0)
(0.0293035 -0.0931389 0)
(0.0511232 -0.0787321 0)
(0.0677197 -0.0645784 0)
(0.0801827 -0.0511091 0)
(0.0888709 -0.0395 0)
(0.0942631 -0.0302473 0)
(0.0972904 -0.0231991 0)
(0.0986596 -0.0179264 0)
(0.0989948 -0.0138917 0)
(0.0984306 -0.0106372 0)
(0.0974088 -0.0076554 0)
(0.0951647 -0.00446014 0)
(0.0930774 -0.00010551 0)
(0.0876445 0.00596103 0)
(0.08361 0.0174308 0)
(0.0684187 0.0349178 0)
(0.0674309 0.0723908 0)
(0.0126472 0.135618 0)
(0.0497183 0.222661 0)
(0.00704872 -0.113619 0)
(0.0204597 -0.106482 0)
(0.0318273 -0.0885757 0)
(0.0426125 -0.069921 0)
(0.0504473 -0.0537225 0)
(0.0554721 -0.040526 0)
(0.0582962 -0.0301585 0)
(0.0596083 -0.0222882 0)
(0.0599165 -0.0164128 0)
(0.059548 -0.0119576 0)
(0.0586354 -0.00833914 0)
(0.0572427 -0.00491578 0)
(0.0551377 -0.00104872 0)
(0.0524998 0.00440596 0)
(0.0481463 0.0120352 0)
(0.0442981 0.0248724 0)
(0.032188 0.0462369 0)
(0.0367122 0.0853816 0)
(-0.00693297 0.154714 0)
(0.0320968 0.250473 0)
(0.00265999 -0.123545 0)
(0.00888496 -0.115177 0)
(0.011382 -0.0969245 0)
(0.0156175 -0.07724 0)
(0.0187868 -0.0589807 0)
(0.0207915 -0.0437912 0)
(0.0218153 -0.0319621 0)
(0.0221708 -0.0230778 0)
(0.0220744 -0.0165026 0)
(0.0216762 -0.0115529 0)
(0.0210076 -0.00751934 0)
(0.0200541 -0.00363254 0)
(0.0186932 0.000869457 0)
(0.0169073 0.00697659 0)
(0.0143141 0.0157597 0)
(0.0120969 0.0298313 0)
(0.00385768 0.0526055 0)
(0.0120183 0.0937178 0)
(-0.0196249 0.162309 0)
(0.0175023 0.251253 0)
(-0.00539157 -0.124066 0)
(-0.0059308 -0.1133 0)
(-0.0112851 -0.0960595 0)
(-0.0131816 -0.0768039 0)
(-0.014613 -0.0586661 0)
(-0.0158007 -0.0435114 0)
(-0.0167385 -0.0316655 0)
(-0.0174519 -0.0228078 0)
(-0.0179465 -0.0162445 0)
(-0.018306 -0.011241 0)
(-0.0185932 -0.00706615 0)
(-0.0188897 -0.0029611 0)
(-0.0193235 0.00183713 0)
(-0.0198628 0.00829152 0)
(-0.020495 0.0176172 0)
(-0.0210425 0.0320198 0)
(-0.0240827 0.0545975 0)
(-0.0142059 0.0960152 0)
(-0.032844 0.1594 0)
(0.00817806 0.23778 0)
(-0.011659 -0.112025 0)
(-0.0217448 -0.103985 0)
(-0.0354397 -0.0891928 0)
(-0.0442705 -0.0716699 0)
(-0.050452 -0.05492 0)
(-0.0550101 -0.0408876 0)
(-0.0581837 -0.0299125 0)
(-0.0603879 -0.0216732 0)
(-0.0617599 -0.0155781 0)
(-0.0625336 -0.0109454 0)
(-0.062891 -0.00699951 0)
(-0.0629811 -0.00301291 0)
(-0.0628909 0.00177494 0)
(-0.0625362 0.00821378 0)
(-0.0620404 0.0170003 0)
(-0.0611864 0.0304169 0)
(-0.0592271 0.0526701 0)
(-0.0488587 0.0935079 0)
(-0.0506974 0.154357 0)
(-0.00674065 0.210723 0)
(-0.019841 -0.0913547 0)
(-0.0384402 -0.0844031 0)
(-0.06135 -0.0739244 0)
(-0.0782376 -0.0599835 0)
(-0.0899446 -0.0464881 0)
(-0.0987157 -0.0349723 0)
(-0.104832 -0.0258322 0)
(-0.109418 -0.0189625 0)
(-0.112602 -0.0137511 0)
(-0.11493 -0.00968281 0)
(-0.116599 -0.00615986 0)
(-0.117807 -0.00248262 0)
(-0.118621 0.00202341 0)
(-0.118944 0.00793775 0)
(-0.11846 0.0165446 0)
(-0.115596 0.0299899 0)
(-0.108115 0.0515386 0)
(-0.0913762 0.0870292 0)
(-0.0677623 0.135821 0)
(-0.0195015 0.17057 0)
(-0.0263234 -0.059178 0)
(-0.0538599 -0.0551431 0)
(-0.0871088 -0.0489909 0)
(-0.114403 -0.0396986 0)
(-0.133862 -0.0305933 0)
(-0.149229 -0.0232393 0)
(-0.159911 -0.0173839 0)
(-0.168226 -0.012785 0)
(-0.174258 -0.00920958 0)
(-0.179155 -0.00637351 0)
(-0.182544 -0.00377499 0)
(-0.184942 -0.000924043 0)
(-0.186237 0.00266057 0)
(-0.185948 0.00723148 0)
(-0.182873 0.0135921 0)
(-0.175062 0.023427 0)
(-0.15871 0.0394161 0)
(-0.129505 0.0644754 0)
(-0.0807312 0.097561 0)
(-0.0458904 0.112892 0)
(-0.0309523 -0.0202071 0)
(-0.0634704 -0.0185702 0)
(-0.103607 -0.0167274 0)
(-0.13864 -0.0138955 0)
(-0.163307 -0.0111688 0)
(-0.184041 -0.00834379 0)
(-0.199477 -0.00592915 0)
(-0.211756 -0.00407125 0)
(-0.220561 -0.00268249 0)
(-0.227088 -0.00159427 0)
(-0.231199 -0.000650145 0)
(-0.233333 0.000257255 0)
(-0.233938 0.00149537 0)
(-0.232149 0.00308196 0)
(-0.22685 0.00533224 0)
(-0.214746 0.00893681 0)
(-0.192005 0.0148672 0)
(-0.154243 0.0241169 0)
(-0.0995646 0.0358637 0)
(-0.0498849 0.0397036 0)
(-0.0306741 0.0223539 0)
(-0.0629693 0.0207001 0)
(-0.102805 0.0191391 0)
(-0.137593 0.0166115 0)
(-0.162064 0.0139575 0)
(-0.182378 0.0111394 0)
(-0.197553 0.00844998 0)
(-0.209569 0.00625581 0)
(-0.21817 0.0044069 0)
(-0.224642 0.00282913 0)
(-0.228685 0.00137112 0)
(-0.230996 -0.000106661 0)
(-0.231408 -0.00192903 0)
(-0.22973 -0.0040019 0)
(-0.224449 -0.0069297 0)
(-0.212579 -0.0112678 0)
(-0.190072 -0.0182953 0)
(-0.152721 -0.0290061 0)
(-0.0984304 -0.042645 0)
(-0.0485445 -0.0483683 0)
(-0.0258959 0.0608698 0)
(-0.0529936 0.0569243 0)
(-0.0858473 0.0510703 0)
(-0.112805 0.0421566 0)
(-0.13181 0.0332035 0)
(-0.146766 0.0256854 0)
(-0.156918 0.0195794 0)
(-0.164683 0.01466 0)
(-0.170117 0.0106547 0)
(-0.174425 0.0073942 0)
(-0.177351 0.00437011 0)
(-0.179441 0.00109894 0)
(-0.180628 -0.00284848 0)
(-0.180377 -0.0078454 0)
(-0.17751 -0.014623 0)
(-0.170113 -0.0249499 0)
(-0.154429 -0.0416345 0)
(-0.126197 -0.0677645 0)
(-0.0791318 -0.102311 0)
(-0.043616 -0.118618 0)
(-0.0194237 0.0924919 0)
(-0.0376569 0.0857671 0)
(-0.0603422 0.0756483 0)
(-0.0769962 0.062012 0)
(-0.0883323 0.048577 0)
(-0.0967255 0.0369008 0)
(-0.102365 0.0274691 0)
(-0.106464 0.0202264 0)
(-0.109194 0.0146378 0)
(-0.111039 0.0102115 0)
(-0.112291 0.00633612 0)
(-0.113119 0.00237184 0)
(-0.113647 -0.00237086 0)
(-0.113735 -0.00846733 0)
(-0.113168 -0.0172033 0)
(-0.110528 -0.0308197 0)
(-0.103549 -0.0526646 0)
(-0.0876447 -0.0888756 0)
(-0.0663282 -0.138926 0)
(-0.0181786 -0.175176 0)
(-0.0113447 0.112714 0)
(-0.0211185 0.105066 0)
(-0.0346011 0.090697 0)
(-0.0431964 0.0734488 0)
(-0.0490568 0.0567137 0)
(-0.0532919 0.0424752 0)
(-0.0561448 0.031181 0)
(-0.0580511 0.0225685 0)
(-0.0591651 0.0160916 0)
(-0.0597245 0.0111055 0)
(-0.0599079 0.00684746 0)
(-0.0598613 0.00261136 0)
(-0.0596679 -0.00236842 0)
(-0.0592252 -0.00895822 0)
(-0.0586702 -0.0178852 0)
(-0.0578087 -0.0313727 0)
(-0.0560969 -0.0535634 0)
(-0.0457214 -0.0944182 0)
(-0.0489993 -0.155598 0)
(-0.00586343 -0.213555 0)
(-0.00509698 0.124362 0)
(-0.00541496 0.11409 0)
(-0.010547 0.0972858 0)
(-0.012188 0.0782981 0)
(-0.0133352 0.0601747 0)
(-0.0142519 0.0448361 0)
(-0.0149536 0.0326939 0)
(-0.0154803 0.0234907 0)
(-0.0158317 0.0165899 0)
(-0.0161002 0.0112825 0)
(-0.0163368 0.00684015 0)
(-0.0166202 0.00252165 0)
(-0.0170694 -0.00243469 0)
(-0.0176481 -0.00901175 0)
(-0.018354 -0.0184315 0)
(-0.0189544 -0.0329551 0)
(-0.0222808 -0.0557061 0)
(-0.0123163 -0.0971832 0)
(-0.0317543 -0.160633 0)
(0.00863295 -0.239806 0)
(0.00282 0.123556 0)
(0.00927045 0.115732 0)
(0.0120201 0.0979469 0)
(0.0165219 0.0785029 0)
(0.0199739 0.0602585 0)
(0.0222395 0.044906 0)
(0.0234736 0.0328203 0)
(0.0239757 0.0236443 0)
(0.0239698 0.0167814 0)
(0.0236039 0.0115672 0)
(0.0229205 0.00730611 0)
(0.0219169 0.00323673 0)
(0.0204693 -0.00139653 0)
(0.0185897 -0.00760866 0)
(0.0158693 -0.0164623 0)
(0.0135356 -0.030573 0)
(0.00504464 -0.0533503 0)
(0.0133532 -0.0943023 0)
(-0.0189102 -0.162996 0)
(0.0178686 -0.252457 0)
(0.00722448 0.11334 0)
(0.0207423 0.106721 0)
(0.0323274 0.0893014 0)
(0.0433967 0.0708565 0)
(0.0515597 0.0546776 0)
(0.0568766 0.0413788 0)
(0.0599241 0.0308323 0)
(0.0613795 0.0227436 0)
(0.0617538 0.0166444 0)
(0.0613871 0.0119805 0)
(0.0604194 0.00818203 0)
(0.0589357 0.00460151 0)
(0.0566868 0.000624581 0)
(0.053912 -0.00490938 0)
(0.0493709 -0.0125898 0)
(0.045377 -0.0254722 0)
(0.0330028 -0.0468078 0)
(0.0374362 -0.0859651 0)
(-0.00640464 -0.155567 0)
(0.0322913 -0.251085 0)
(0.0110893 0.100677 0)
(0.0293372 0.0931941 0)
(0.051409 0.0791653 0)
(0.0683371 0.0651928 0)
(0.0811107 0.0518106 0)
(0.0901148 0.0401633 0)
(0.0957681 0.030795 0)
(0.0989769 0.0235923 0)
(0.100434 0.0181637 0)
(0.100779 0.0139822 0)
(0.100142 0.0106033 0)
(0.0990096 0.00750929 0)
(0.096589 0.00423519 0)
(0.0943652 -0.000181955 0)
(0.0886819 -0.0062935 0)
(0.0844994 -0.0178128 0)
(0.0690307 -0.0352699 0)
(0.0679448 -0.0727769 0)
(0.0129032 -0.135925 0)
(0.0499251 -0.223072 0)
(0.0154588 0.0511139 0)
(0.0308403 0.041915 0)
(0.0639614 0.0369296 0)
(0.0889173 0.0318717 0)
(0.108747 0.0264854 0)
(0.123827 0.0213575 0)
(0.134839 0.0169159 0)
(0.142914 0.0133623 0)
(0.14839 0.0107229 0)
(0.152458 0.00859636 0)
(0.154729 0.0069438 0)
(0.156667 0.00506551 0)
(0.156622 0.0034079 0)
(0.156531 -0.000171038 0)
(0.152047 -0.00317145 0)
(0.14876 -0.0115754 0)
(0.13417 -0.0215484 0)
(0.126935 -0.0503183 0)
(0.065417 -0.0941675 0)
(0.0901498 -0.164679 0)
(0.0635663 0.0988051 0)
(0.0773235 0.063928 0)
(0.123366 0.043516 0)
(0.157997 0.0339942 0)
(0.184652 0.0281041 0)
(0.206367 0.0236795 0)
(0.223998 0.0200659 0)
(0.238917 0.0171603 0)
(0.250728 0.0147184 0)
(0.260919 0.0127571 0)
(0.268564 0.010938 0)
(0.275413 0.00942347 0)
(0.279695 0.00769261 0)
(0.283277 0.00610623 0)
(0.283391 0.00371071 0)
(0.280067 0.000509073 0)
(0.269559 -0.00134926 0)
(0.250712 -0.011751 0)
(0.189001 -0.0225269 0)
(0.172673 -0.117422 0)
)
;

boundaryField
{
    movingWall
    {
        type            fixedValue;
        value           uniform (1 0 0);
    }
    movingWallBottom
    {
        type            fixedValue;
        value           uniform (1 0 0);
    }
    fixedWalls
    {
        type            noSlip;
    }
    frontAndBack
    {
        type            empty;
    }
}


// ************************************************************************* //
