/*--------------------------------*- C++ -*----------------------------------*\
| =========                 |                                                 |
| \\      /  F ield         | OpenFOAM: The Open Source CFD Toolbox           |
|  \\    /   O peration     | Version:  4.1                                   |
|   \\  /    A nd           | Web:      www.OpenFOAM.org                      |
|    \\/     M anipulation  |                                                 |
\*---------------------------------------------------------------------------*/
FoamFile
{
    version     2.0;
    format      ascii;
    class       volScalarField;
    location    "7";
    object      epsilon;
}
// * * * * * * * * * * * * * * * * * * * * * * * * * * * * * * * * * * * * * //

dimensions      [0 2 -3 0 0 0 0];

internalField   nonuniform List<scalar> 
400
(
0.040059
0.0701986
0.0915938
0.103017
0.110706
0.11638
0.121066
0.124886
0.12819
0.130918
0.133389
0.135623
0.137893
0.140241
0.143355
0.146284
0.149783
0.154698
0.171122
0.149014
0.00979791
0.00808009
0.00877581
0.00972584
0.0107041
0.0117746
0.0130457
0.0145502
0.0162028
0.0180303
0.0198658
0.021884
0.0236361
0.0258159
0.0272
0.0310556
0.0362648
0.0487626
0.0749797
0.110569
0.0111089
0.00581842
0.00429366
0.00388054
0.00390917
0.00413121
0.00463886
0.00537518
0.00624485
0.0072116
0.00817006
0.00912545
0.00991618
0.0106429
0.0110782
0.0120199
0.0137111
0.0197904
0.0370078
0.0811424
0.0121671
0.00519361
0.00365689
0.00332169
0.00340845
0.00372834
0.0042898
0.00496335
0.0056659
0.00632259
0.00684887
0.00718749
0.0073093
0.00729271
0.00716068
0.0072685
0.0079829
0.0120303
0.0249116
0.0660692
0.0129971
0.00504194
0.00369538
0.00359767
0.00392263
0.004511
0.00517431
0.00582715
0.00637488
0.00675356
0.00689874
0.00680176
0.0064767
0.00598544
0.00545727
0.00523845
0.00573991
0.00923716
0.0200984
0.0570548
0.0134331
0.00516409
0.00420706
0.00418898
0.00476211
0.00549959
0.00621956
0.00681216
0.00716605
0.00727618
0.00708774
0.00662804
0.00595334
0.00517614
0.00450472
0.00424767
0.00493503
0.00833007
0.0190296
0.0501114
0.0139343
0.00594346
0.0048596
0.00476579
0.00540515
0.00621991
0.0069202
0.00739124
0.00758464
0.00754443
0.0071215
0.00644732
0.00562657
0.00481313
0.00434755
0.0042602
0.00520482
0.00880711
0.0195743
0.0438109
0.0142722
0.00663707
0.00519102
0.00502106
0.00563192
0.00644162
0.00706465
0.00738165
0.00747552
0.00729214
0.00678668
0.00614729
0.00549206
0.00506979
0.00492449
0.00519059
0.00667539
0.0107249
0.0211594
0.0370819
0.0144059
0.00736778
0.00519853
0.00457957
0.00455691
0.00500382
0.00529606
0.00548943
0.00555859
0.00556665
0.00554355
0.00555187
0.00571973
0.00606201
0.00673004
0.00798036
0.0103265
0.0146018
0.0211967
0.0289133
0.0144458
0.00773177
0.00497767
0.00382974
0.00349572
0.00343715
0.00351522
0.00371432
0.00397248
0.00434183
0.00480389
0.00541815
0.00620225
0.00723847
0.00862002
0.0105019
0.0130168
0.016046
0.0175305
0.0161351
0.0144307
0.00771896
0.00498162
0.00384441
0.00351654
0.00346176
0.00354874
0.0037476
0.0040042
0.00436514
0.00481799
0.00541824
0.00618817
0.0072075
0.00857519
0.0104512
0.0129855
0.0161524
0.0177384
0.0166652
0.0143705
0.00732857
0.00516414
0.00454626
0.00452284
0.00497903
0.00529122
0.00550403
0.00558376
0.00559308
0.00555009
0.00553829
0.00565108
0.00595544
0.00655927
0.00776329
0.0100549
0.0143592
0.0212287
0.029441
0.0142139
0.00658812
0.00513186
0.00494071
0.00552761
0.0063313
0.00695481
0.00728089
0.00738064
0.00721864
0.00672559
0.00609269
0.00543158
0.00498982
0.004833
0.00507268
0.00652473
0.010536
0.0209725
0.0373124
0.0138533
0.00588926
0.00478796
0.00468791
0.0053048
0.00610748
0.00679651
0.00726005
0.00745093
0.00741911
0.00701047
0.0063527
0.00554904
0.00474978
0.00428969
0.0042043
0.00514102
0.00870925
0.019436
0.0439651
0.0133615
0.00511355
0.00414829
0.00412197
0.00467821
0.00539956
0.00610276
0.0066834
0.0070363
0.00715075
0.00697484
0.00653335
0.00588082
0.00512535
0.0044697
0.00421845
0.0049014
0.00827292
0.0189149
0.0501788
0.0129359
0.00501111
0.0036519
0.00354763
0.00386118
0.00443535
0.00508193
0.00571998
0.00625942
0.00663688
0.00678892
0.00670435
0.00639975
0.00592812
0.00541928
0.0052163
0.0057222
0.00920268
0.0200043
0.0570697
0.0121118
0.00516599
0.00363074
0.00329074
0.00337059
0.00367585
0.00421944
0.00487507
0.00556305
0.0062111
0.00673561
0.00708055
0.00721629
0.00721208
0.00710116
0.00722149
0.00794613
0.0119919
0.0248878
0.0660375
0.0110554
0.00579277
0.00427204
0.00385564
0.003879
0.00408869
0.00457555
0.00529103
0.00613943
0.00708892
0.0080347
0.00898575
0.00977812
0.010514
0.0109627
0.0119277
0.0136306
0.0197163
0.036949
0.0810973
0.00975957
0.00805739
0.00875393
0.00969407
0.0106566
0.0117062
0.0129488
0.0144245
0.0160451
0.0178457
0.0196529
0.0216551
0.0233923
0.0255698
0.0269681
0.0308607
0.0360888
0.0486145
0.0748841
0.110451
0.0400569
0.0702508
0.0916386
0.103007
0.110626
0.116235
0.120856
0.124631
0.127889
0.130595
0.133036
0.135266
0.137523
0.139886
0.143006
0.145944
0.149462
0.154392
0.170857
0.148836
)
;

boundaryField
{
    movingWall
    {
        Cmu             0.09;
        kappa           0.41;
        E               9.8;
        type            epsilonWallFunction;
        value           nonuniform List<scalar> 
20
(
0.0400569
0.0702508
0.0916386
0.103007
0.110626
0.116235
0.120856
0.124631
0.127889
0.130595
0.133036
0.135266
0.137523
0.139886
0.143006
0.145944
0.149462
0.154392
0.170857
0.148836
)
;
    }
    movingWallBottom
    {
        Cmu             0.09;
        kappa           0.41;
        E               9.8;
        type            epsilonWallFunction;
        value           nonuniform List<scalar> 
20
(
0.040059
0.0701986
0.0915938
0.103017
0.110706
0.11638
0.121066
0.124886
0.12819
0.130918
0.133389
0.135623
0.137893
0.140241
0.143355
0.146284
0.149783
0.154698
0.171122
0.149014
)
;
    }
    fixedWalls
    {
        Cmu             0.09;
        kappa           0.41;
        E               9.8;
        type            epsilonWallFunction;
        value           nonuniform List<scalar> 
40
(
0.040059
0.00979791
0.0111089
0.0121671
0.0129971
0.0134331
0.0139343
0.0142722
0.0144059
0.0144458
0.0144307
0.0143705
0.0142139
0.0138533
0.0133615
0.0129359
0.0121118
0.0110554
0.00975957
0.0400569
0.149014
0.110569
0.0811424
0.0660692
0.0570548
0.0501114
0.0438109
0.0370819
0.0289133
0.0161351
0.0166652
0.029441
0.0373124
0.0439651
0.0501788
0.0570697
0.0660375
0.0810973
0.110451
0.148836
)
;
    }
    frontAndBack
    {
        type            empty;
    }
}


// ************************************************************************* //
