/*--------------------------------*- C++ -*----------------------------------*\
| =========                 |                                                 |
| \\      /  F ield         | OpenFOAM: The Open Source CFD Toolbox           |
|  \\    /   O peration     | Version:  4.1                                   |
|   \\  /    A nd           | Web:      www.OpenFOAM.org                      |
|    \\/     M anipulation  |                                                 |
\*---------------------------------------------------------------------------*/
FoamFile
{
    version     2.0;
    format      ascii;
    class       volScalarField;
    location    "7";
    object      k;
}
// * * * * * * * * * * * * * * * * * * * * * * * * * * * * * * * * * * * * * //

dimensions      [0 2 -2 0 0 0 0];

internalField   nonuniform List<scalar> 
400
(
0.00396728
0.00576654
0.00688559
0.00744683
0.00781294
0.00807768
0.00829306
0.00846661
0.00861528
0.0087371
0.00884668
0.00894516
0.0090447
0.00914709
0.00928198
0.00940799
0.00955743
0.00976538
0.0104448
0.00952464
0.00155155
0.00168721
0.00197716
0.00215464
0.00227518
0.00240156
0.0025544
0.00274173
0.00295543
0.00319344
0.0034361
0.00368267
0.00389343
0.004105
0.00420288
0.00440271
0.0045744
0.00509724
0.00644721
0.00780643
0.00168702
0.00167338
0.00180711
0.00191167
0.0019947
0.00212455
0.00230781
0.00253855
0.00279664
0.00306008
0.00329719
0.00348612
0.00360737
0.00361899
0.00356367
0.00344844
0.00322338
0.00340084
0.00431279
0.00635127
0.00179253
0.00171391
0.00180592
0.00193495
0.00213124
0.00239488
0.00269578
0.00300504
0.00328911
0.00351876
0.00366715
0.00371271
0.00367018
0.00353845
0.00328915
0.00301289
0.00270264
0.00281984
0.00352459
0.00553809
0.00187314
0.00193901
0.00203585
0.00217365
0.00243074
0.00275676
0.00310343
0.00342512
0.00367351
0.00382618
0.00386661
0.00380017
0.00361576
0.00333073
0.00296898
0.00262345
0.00235824
0.00252473
0.00320395
0.00502213
0.00191479
0.00214075
0.00219403
0.00233874
0.00265587
0.00302524
0.00337105
0.00365082
0.00384278
0.0039166
0.00386062
0.00367139
0.00336932
0.00298515
0.00256886
0.00222617
0.00207545
0.0022765
0.00300045
0.00460592
0.00196213
0.00238064
0.0023431
0.00241479
0.00275069
0.00312712
0.00344968
0.00366312
0.00374794
0.00373356
0.00357307
0.0032982
0.00293524
0.00252217
0.00210708
0.00188377
0.00182297
0.0021241
0.00291645
0.00421126
0.00199371
0.00261582
0.00240337
0.00239028
0.00263129
0.00292289
0.0031318
0.00322807
0.00324605
0.00313083
0.00290622
0.00261323
0.00229237
0.00199186
0.00183404
0.00177643
0.00182749
0.00218987
0.00293052
0.00376817
0.00200614
0.00280637
0.00219245
0.001987
0.00197613
0.00208406
0.00213182
0.00214548
0.0020946
0.00199643
0.00189381
0.00179837
0.00174648
0.00172669
0.00174629
0.00185338
0.0020563
0.0024665
0.00289593
0.00319216
0.00200983
0.00294785
0.00206293
0.00163155
0.00146626
0.00140107
0.00137208
0.00136256
0.0013635
0.00139781
0.0014435
0.00151884
0.00161356
0.00173841
0.00189545
0.00210056
0.00233699
0.00252157
0.00258946
0.00216371
0.00200843
0.00294316
0.00206528
0.00163846
0.00147655
0.00141404
0.00138651
0.00137753
0.00137812
0.00140866
0.00145202
0.00152296
0.00161506
0.00173589
0.00189012
0.00209507
0.00233527
0.00253309
0.00260989
0.0022109
0.00200284
0.00279524
0.00218313
0.00197753
0.00196754
0.0020876
0.00214373
0.00216294
0.00212784
0.00202774
0.00192433
0.00181916
0.00175716
0.00173177
0.0017329
0.0018377
0.00202631
0.00244543
0.00289546
0.00323094
0.00198827
0.00259738
0.00237864
0.00236315
0.00260072
0.00289628
0.00311465
0.00321901
0.00324298
0.00314214
0.00292606
0.00263572
0.00231338
0.00200435
0.00183541
0.00177335
0.00181713
0.00217767
0.00292165
0.0037838
0.00195451
0.0023613
0.00231838
0.00238344
0.00271502
0.00309087
0.0034152
0.00363321
0.00372189
0.00371562
0.00356256
0.00329419
0.00293721
0.00252859
0.00211626
0.00188778
0.00182434
0.00211823
0.00290774
0.00422115
0.00190798
0.00212287
0.00217031
0.00230928
0.00262229
0.0029896
0.00333445
0.00361433
0.00380788
0.00388634
0.00383673
0.00365455
0.00335983
0.00298195
0.00257092
0.00223087
0.00207999
0.00227936
0.00299607
0.00461006
0.00186724
0.0019241
0.00201596
0.00214926
0.0024025
0.00272457
0.00306762
0.00338698
0.00363627
0.00379159
0.00383626
0.00377519
0.0035976
0.00331941
0.00296312
0.00262184
0.00235668
0.00251877
0.00319462
0.00502301
0.00178709
0.00170172
0.00179185
0.00191629
0.00210846
0.00236783
0.00266439
0.00297009
0.00325224
0.00348209
0.00363282
0.00368271
0.0036435
0.00351809
0.00327362
0.00300249
0.00269434
0.0028117
0.00351818
0.00553632
0.00168159
0.00166471
0.00179589
0.00190107
0.00198192
0.00210766
0.00228577
0.00251099
0.00276413
0.00302425
0.00325985
0.00344958
0.00357241
0.0035891
0.00353639
0.00342603
0.00320554
0.0033847
0.00430334
0.00634892
0.0015475
0.0016809
0.00196893
0.00214559
0.00226435
0.00238767
0.00253656
0.00271943
0.00292826
0.00316188
0.00340037
0.00364462
0.00385337
0.0040656
0.00416513
0.00436917
0.00454567
0.00507631
0.00643888
0.00780085
0.00396714
0.0057694
0.00688784
0.00744637
0.00780918
0.00807096
0.00828347
0.00845506
0.00860178
0.00872269
0.00883104
0.00892946
0.0090285
0.00913162
0.0092669
0.00939338
0.00954375
0.00975246
0.010434
0.00951705
)
;

boundaryField
{
    movingWall
    {
        type            kqRWallFunction;
        value           nonuniform List<scalar> 
20
(
0.00396714
0.0057694
0.00688784
0.00744637
0.00780918
0.00807096
0.00828347
0.00845506
0.00860178
0.00872269
0.00883104
0.00892946
0.0090285
0.00913162
0.0092669
0.00939338
0.00954375
0.00975246
0.010434
0.00951705
)
;
    }
    movingWallBottom
    {
        type            kqRWallFunction;
        value           nonuniform List<scalar> 
20
(
0.00396728
0.00576654
0.00688559
0.00744683
0.00781294
0.00807768
0.00829306
0.00846661
0.00861528
0.0087371
0.00884668
0.00894516
0.0090447
0.00914709
0.00928198
0.00940799
0.00955743
0.00976538
0.0104448
0.00952464
)
;
    }
    fixedWalls
    {
        type            kqRWallFunction;
        value           nonuniform List<scalar> 
40
(
0.00396728
0.00155155
0.00168702
0.00179253
0.00187314
0.00191479
0.00196213
0.00199371
0.00200614
0.00200983
0.00200843
0.00200284
0.00198827
0.00195451
0.00190798
0.00186724
0.00178709
0.00168159
0.0015475
0.00396714
0.00952464
0.00780643
0.00635127
0.00553809
0.00502213
0.00460592
0.00421126
0.00376817
0.00319216
0.00216371
0.0022109
0.00323094
0.0037838
0.00422115
0.00461006
0.00502301
0.00553632
0.00634892
0.00780085
0.00951705
)
;
    }
    frontAndBack
    {
        type            empty;
    }
}


// ************************************************************************* //
