/*--------------------------------*- C++ -*----------------------------------*\
| =========                 |                                                 |
| \\      /  F ield         | OpenFOAM: The Open Source CFD Toolbox           |
|  \\    /   O peration     | Version:  4.1                                   |
|   \\  /    A nd           | Web:      www.OpenFOAM.org                      |
|    \\/     M anipulation  |                                                 |
\*---------------------------------------------------------------------------*/
FoamFile
{
    version     2.0;
    format      ascii;
    class       volScalarField;
    location    "7";
    object      nut;
}
// * * * * * * * * * * * * * * * * * * * * * * * * * * * * * * * * * * * * * //

dimensions      [0 2 -1 0 0 0 0];

internalField   nonuniform List<scalar> 
400
(
3.53613e-05
4.26329e-05
4.65864e-05
4.8448e-05
4.96248e-05
5.04587e-05
5.11271e-05
5.16593e-05
5.21109e-05
5.2478e-05
5.28061e-05
5.30991e-05
5.33937e-05
5.3695e-05
5.40894e-05
5.44553e-05
5.4886e-05
5.54798e-05
5.73772e-05
5.47914e-05
2.21127e-05
3.17077e-05
4.00901e-05
4.296e-05
4.35232e-05
4.4084e-05
4.50146e-05
4.64966e-05
4.85169e-05
5.09047e-05
5.34893e-05
5.57753e-05
5.77207e-05
5.87463e-05
5.84479e-05
5.61748e-05
5.19308e-05
4.79542e-05
4.98933e-05
4.96036e-05
2.30574e-05
4.33139e-05
6.84513e-05
8.47575e-05
9.16041e-05
9.83335e-05
0.000103332
0.0001079
0.000112718
0.000116863
0.000119759
0.00011986
0.000118108
0.000110754
0.000103173
8.90399e-05
6.82018e-05
5.25971e-05
4.52341e-05
4.4742e-05
2.37676e-05
5.09036e-05
8.02655e-05
0.000101443
0.000119936
0.000138451
0.000152467
0.000163745
0.000171843
0.000176249
0.000176718
0.000172602
0.00016586
0.000154518
0.000135974
0.000112399
8.2349e-05
5.94862e-05
4.48807e-05
4.17796e-05
2.4296e-05
6.71128e-05
0.000100943
0.000118195
0.000135563
0.000151624
0.000167523
0.000181192
0.000190516
0.000195093
0.000195045
0.000191086
0.000181672
0.000166812
0.000145373
0.000118246
8.71997e-05
6.21063e-05
4.59678e-05
3.97857e-05
2.45646e-05
7.98697e-05
0.000102979
0.000117516
0.000133308
0.000149773
0.000164442
0.000176092
0.000185461
0.00018974
0.000189256
0.000183028
0.00017162
0.000154942
0.000131842
0.000105004
7.85558e-05
5.59926e-05
4.25781e-05
3.81012e-05
2.48663e-05
8.58208e-05
0.000101678
0.00011012
0.000125985
0.000141497
0.000154768
0.000163391
0.000166683
0.000166289
0.000161344
0.000151851
0.000137812
0.00011895
9.19093e-05
7.49665e-05
5.74637e-05
4.61064e-05
3.91079e-05
3.64322e-05
2.50655e-05
9.27858e-05
0.000100145
0.00010241
0.000110643
0.000119364
0.000124951
0.00012705
0.000126856
0.000120978
0.000112006
9.99806e-05
8.61146e-05
7.04323e-05
6.14747e-05
5.47168e-05
4.50272e-05
4.02423e-05
3.65283e-05
3.44622e-05
2.51434e-05
9.62047e-05
8.32189e-05
7.75915e-05
7.71263e-05
7.81199e-05
7.72308e-05
7.54686e-05
7.10364e-05
6.44402e-05
5.82272e-05
5.2428e-05
4.79948e-05
4.42644e-05
4.07811e-05
3.87391e-05
3.6852e-05
3.74972e-05
3.56083e-05
3.17187e-05
2.51665e-05
0.000101152
7.69463e-05
6.25567e-05
5.5351e-05
5.14004e-05
4.82005e-05
4.49858e-05
4.21201e-05
4.05013e-05
3.90378e-05
3.83192e-05
3.77801e-05
3.75752e-05
3.75111e-05
3.78134e-05
3.77616e-05
3.56629e-05
3.44245e-05
2.61136e-05
2.51577e-05
0.000100998
7.70603e-05
6.28471e-05
5.57983e-05
5.1984e-05
4.87546e-05
4.55713e-05
4.26878e-05
4.09126e-05
3.93842e-05
3.85267e-05
3.79365e-05
3.76271e-05
3.74952e-05
3.77985e-05
3.77972e-05
3.57525e-05
3.45599e-05
2.63979e-05
2.51227e-05
9.59538e-05
8.30626e-05
7.7417e-05
7.70333e-05
7.87754e-05
7.81673e-05
7.6498e-05
7.29781e-05
6.61628e-05
6.00485e-05
5.37788e-05
4.91739e-05
4.53218e-05
4.12034e-05
3.91511e-05
3.67517e-05
3.74822e-05
3.55431e-05
3.19115e-05
2.50312e-05
9.21619e-05
9.92262e-05
0.000101727
0.000110127
0.000119242
0.000125538
0.000128086
0.000128244
0.000123094
0.000114572
0.00010262
8.86766e-05
7.24612e-05
6.27324e-05
5.5795e-05
4.5546e-05
4.05092e-05
3.6631e-05
3.45338e-05
2.48178e-05
8.52089e-05
0.000101032
0.000109062
0.00012506
0.00014078
0.000154451
0.000163638
0.000167324
0.000167476
0.000162937
0.000153738
0.000139925
0.000121151
9.39626e-05
7.62873e-05
5.82644e-05
4.63671e-05
3.91514e-05
3.64751e-05
2.45208e-05
7.93169e-05
0.000102192
0.000116437
0.00013229
0.000148974
0.00016397
0.000175914
0.000185466
0.000190096
0.000189947
0.000183982
0.000172758
0.000156142
0.000133088
0.000106179
7.94411e-05
5.6521e-05
4.27112e-05
3.81184e-05
2.42577e-05
6.64915e-05
0.000100159
0.000117187
0.00013454
0.00015063
0.000166655
0.000180498
0.000190117
0.000194949
0.0001951
0.000191321
0.000182014
0.000167282
0.000145814
0.000118602
8.73534e-05
6.20448e-05
4.59154e-05
3.97892e-05
2.37314e-05
5.04504e-05
7.95882e-05
0.000100432
0.000118704
0.000137273
0.00015142
0.000162855
0.000171118
0.000175693
0.000176341
0.00017239
0.000165564
0.000154452
0.000135822
0.000112352
8.22226e-05
5.93326e-05
4.47602e-05
4.17729e-05
2.30202e-05
4.3056e-05
6.79464e-05
8.4361e-05
9.11372e-05
9.77818e-05
0.00010277
0.000107249
0.000112003
0.000116118
0.000119033
0.000119184
0.000117465
0.000110267
0.000102671
8.85664e-05
6.78467e-05
5.22947e-05
4.51078e-05
4.47337e-05
2.20837e-05
3.15595e-05
3.98564e-05
4.27396e-05
4.33021e-05
4.38302e-05
4.47203e-05
4.61419e-05
4.80971e-05
5.04195e-05
5.29503e-05
5.5206e-05
5.71283e-05
5.81787e-05
5.78961e-05
5.56719e-05
5.15307e-05
4.7706e-05
4.98279e-05
4.95858e-05
3.53607e-05
4.26435e-05
4.6594e-05
4.84465e-05
4.96129e-05
5.04376e-05
5.10974e-05
5.16239e-05
5.20699e-05
5.24346e-05
5.27592e-05
5.30523e-05
5.33457e-05
5.36494e-05
5.40453e-05
5.44128e-05
5.48465e-05
5.5443e-05
5.73475e-05
5.47695e-05
)
;

boundaryField
{
    movingWall
    {
        type            nutkWallFunction;
        Cmu             0.09;
        kappa           0.41;
        E               9.8;
        value           nonuniform List<scalar> 
20
(
0
0
0
1.95176e-07
3.88589e-07
5.24946e-07
6.33773e-07
7.20474e-07
7.93808e-07
8.537e-07
9.06966e-07
9.55025e-07
1.00308e-06
1.05279e-06
1.11752e-06
1.17755e-06
1.24831e-06
1.34547e-06
1.65467e-06
1.23579e-06
)
;
    }
    movingWallBottom
    {
        type            nutkWallFunction;
        Cmu             0.09;
        kappa           0.41;
        E               9.8;
        value           nonuniform List<scalar> 
20
(
0
0
0
1.95423e-07
3.90567e-07
5.28411e-07
6.38644e-07
7.26274e-07
8.0052e-07
8.60804e-07
9.14624e-07
9.62665e-07
1.01091e-06
1.06022e-06
1.1247e-06
1.18445e-06
1.25472e-06
1.35144e-06
1.65947e-06
1.23935e-06
)
;
    }
    fixedWalls
    {
        type            nutkWallFunction;
        Cmu             0.09;
        kappa           0.41;
        E               9.8;
        value           nonuniform List<scalar> 
40
(
0
0
0
0
0
0
0
0
0
0
0
0
0
0
0
0
0
0
0
0
1.23935e-06
3.87143e-07
0
0
0
0
0
0
0
0
0
0
0
0
0
0
0
0
3.84207e-07
1.23579e-06
)
;
    }
    frontAndBack
    {
        type            empty;
    }
}


// ************************************************************************* //
