/*--------------------------------*- C++ -*----------------------------------*\
| =========                 |                                                 |
| \\      /  F ield         | OpenFOAM: The Open Source CFD Toolbox           |
|  \\    /   O peration     | Version:  4.1                                   |
|   \\  /    A nd           | Web:      www.OpenFOAM.org                      |
|    \\/     M anipulation  |                                                 |
\*---------------------------------------------------------------------------*/
FoamFile
{
    version     2.0;
    format      ascii;
    class       volScalarField;
    location    "7";
    object      p;
}
// * * * * * * * * * * * * * * * * * * * * * * * * * * * * * * * * * * * * * //

dimensions      [0 2 -2 0 0 0 0];

internalField   nonuniform List<scalar> 
400
(
-3.16705e-08
0.000390279
-0.00359418
-0.00743811
-0.0107592
-0.0135974
-0.0159942
-0.0179539
-0.0194949
-0.0206526
-0.0214678
-0.0219438
-0.0220324
-0.0216096
-0.0204645
-0.0181812
-0.0133976
-0.00498625
0.00810971
0.0286682
-0.00603302
-0.00555214
-0.00728682
-0.00979043
-0.0125163
-0.0150612
-0.0172403
-0.0190075
-0.0203889
-0.0214341
-0.0221882
-0.0226612
-0.0228261
-0.0225708
-0.0216445
-0.0196899
-0.0163871
-0.0107291
-0.00256601
0.0162613
-0.00681114
-0.00726304
-0.00895234
-0.0112878
-0.0137777
-0.0160522
-0.0179596
-0.0194939
-0.020704
-0.0216358
-0.0223218
-0.022755
-0.0229206
-0.0227161
-0.0221276
-0.0207574
-0.0185782
-0.0148413
-0.0110057
-6.26759e-05
-0.00814339
-0.00904348
-0.0107947
-0.013069
-0.0153335
-0.0173178
-0.0189434
-0.0202353
-0.0212491
-0.0220303
-0.0226075
-0.0229859
-0.0231521
-0.0230376
-0.0225814
-0.0215877
-0.0201259
-0.0172971
-0.0158854
-0.0095158
-0.00857942
-0.00986535
-0.0117145
-0.0139804
-0.0161559
-0.0180207
-0.0195207
-0.0206874
-0.0215828
-0.0222619
-0.0227604
-0.0230893
-0.0232353
-0.0231456
-0.0227592
-0.0219653
-0.0208871
-0.0182862
-0.0173557
-0.0124105
-0.00780578
-0.00952421
-0.0115858
-0.0139924
-0.0162538
-0.0181662
-0.0196851
-0.0208438
-0.0217073
-0.0223378
-0.0227814
-0.0230547
-0.0231456
-0.0230052
-0.0225672
-0.0217535
-0.0205132
-0.0179986
-0.015842
-0.0110054
-0.00588115
-0.00791785
-0.0103117
-0.0130097
-0.0155539
-0.0176965
-0.019379
-0.0206381
-0.0215499
-0.0221813
-0.022585
-0.0227873
-0.0227744
-0.022493
-0.0218887
-0.0208182
-0.0189689
-0.015832
-0.0119565
-0.00682458
-0.00305403
-0.0054172
-0.00816121
-0.0112352
-0.0141811
-0.0166773
-0.018633
-0.0200745
-0.0210856
-0.0217423
-0.0221077
-0.0222111
-0.0220417
-0.0215568
-0.0206419
-0.0189983
-0.0161251
-0.0116365
-0.00589983
-0.000609313
-0.000134611
-0.00266546
-0.00566399
-0.00906146
-0.0123897
-0.0152703
-0.0175585
-0.0192402
-0.0203951
-0.0211133
-0.0214626
-0.0214726
-0.0211458
-0.0204064
-0.0190036
-0.0164698
-0.0122327
-0.00600331
0.00175295
0.00618558
0.00178756
-0.000821825
-0.00395467
-0.00757445
-0.0111509
-0.0142315
-0.016692
-0.0185297
-0.0198107
-0.0206035
-0.0209593
-0.0209037
-0.0204412
-0.0194447
-0.0175654
-0.0141981
-0.00874296
-0.00116438
0.00711921
0.0111672
0.00175379
-0.000849791
-0.00397937
-0.00760004
-0.0111819
-0.0142657
-0.0167285
-0.0185681
-0.0198494
-0.0206421
-0.0209991
-0.020948
-0.0204879
-0.0194953
-0.0176271
-0.0142808
-0.00885793
-0.00131978
0.00693164
0.0109859
-0.000205877
-0.00272253
-0.00571219
-0.0091107
-0.0124472
-0.0153382
-0.0176393
-0.0193325
-0.0204969
-0.0212199
-0.0215696
-0.0215775
-0.0212483
-0.0205114
-0.0191231
-0.0166233
-0.0124445
-0.00629979
0.00135069
0.00579946
-0.00312557
-0.00546998
-0.00820374
-0.0112801
-0.0142387
-0.0167538
-0.0187288
-0.0201853
-0.0212078
-0.0218704
-0.0222361
-0.0223365
-0.0221624
-0.0216725
-0.0207575
-0.019132
-0.0163056
-0.0118927
-0.00626766
-0.00100745
-0.00593014
-0.00795118
-0.010339
-0.013045
-0.0156075
-0.0177725
-0.0194761
-0.0207511
-0.0216727
-0.0223079
-0.02271
-0.0229055
-0.022883
-0.0225931
-0.021982
-0.0209149
-0.0190921
-0.0159988
-0.0122107
-0.00713441
-0.00782597
-0.00953169
-0.0115922
-0.0140117
-0.016295
-0.0182322
-0.019774
-0.02095
-0.0218237
-0.0224576
-0.0228984
-0.0231635
-0.023243
-0.0230901
-0.0226407
-0.0218193
-0.0205857
-0.0180801
-0.0159929
-0.0112006
-0.00857229
-0.00984858
-0.0116999
-0.0139792
-0.0161781
-0.0180699
-0.019595
-0.020781
-0.021688
-0.0223712
-0.0228672
-0.0231879
-0.0233218
-0.0232173
-0.0228157
-0.0220085
-0.0209181
-0.0183143
-0.0174329
-0.0124969
-0.00811717
-0.00900886
-0.0107609
-0.0130479
-0.0153357
-0.0173478
-0.0189996
-0.0203121
-0.0213394
-0.0221265
-0.0227029
-0.0230744
-0.0232289
-0.0230973
-0.022623
-0.0216096
-0.0201291
-0.0172939
-0.0158891
-0.00952894
-0.00677812
-0.00721877
-0.00890701
-0.0112522
-0.0137617
-0.0160621
-0.0179959
-0.0195524
-0.0207782
-0.0217182
-0.0224052
-0.0228327
-0.0229869
-0.0227668
-0.0221583
-0.0207644
-0.0185628
-0.0148114
-0.010963
-2.1098e-05
-0.00600509
-0.00550947
-0.00723511
-0.00974289
-0.0124842
-0.0150524
-0.0172579
-0.0190497
-0.0204503
-0.021507
-0.0222649
-0.0227341
-0.0228882
-0.0226155
-0.0216666
-0.0196858
-0.0163561
-0.0106755
-0.00248999
0.0163397
1.75748e-05
0.000420169
-0.00354875
-0.00739238
-0.0107265
-0.0135869
-0.0160095
-0.017994
-0.0195543
-0.0207238
-0.0215423
-0.0220139
-0.0220907
-0.0216503
-0.0204818
-0.0181708
-0.0133554
-0.00491615
0.00820181
0.0287695
)
;

boundaryField
{
    movingWall
    {
        type            zeroGradient;
    }
    movingWallBottom
    {
        type            zeroGradient;
    }
    fixedWalls
    {
        type            zeroGradient;
    }
    frontAndBack
    {
        type            empty;
    }
}


// ************************************************************************* //
