/*--------------------------------*- C++ -*----------------------------------*\
| =========                 |                                                 |
| \\      /  F ield         | OpenFOAM: The Open Source CFD Toolbox           |
|  \\    /   O peration     | Version:  4.1                                   |
|   \\  /    A nd           | Web:      www.OpenFOAM.org                      |
|    \\/     M anipulation  |                                                 |
\*---------------------------------------------------------------------------*/
FoamFile
{
    version     2.0;
    format      ascii;
    class       surfaceScalarField;
    location    "7";
    object      phi;
}
// * * * * * * * * * * * * * * * * * * * * * * * * * * * * * * * * * * * * * //

dimensions      [0 3 -1 0 0 0 0];

internalField   nonuniform List<scalar> 
760
(
3.2105e-06
-3.2105e-06
5.41744e-06
-2.20694e-06
7.12165e-06
-1.70421e-06
8.55517e-06
-1.43351e-06
9.75613e-06
-1.20097e-06
1.07435e-05
-9.874e-07
1.15477e-05
-8.04183e-07
1.22068e-05
-6.59102e-07
1.2753e-05
-5.46211e-07
1.32087e-05
-4.55703e-07
1.35861e-05
-3.77384e-07
1.38856e-05
-2.99479e-07
1.41055e-05
-2.19937e-07
1.42104e-05
-1.04867e-07
1.42022e-05
8.21677e-09
1.38498e-05
3.52379e-07
1.31185e-05
7.31351e-07
1.12229e-05
1.89559e-06
7.7231e-06
3.49976e-06
7.7231e-06
1.0167e-06
-4.2272e-06
2.51007e-06
-3.70031e-06
3.89873e-06
-3.09286e-06
4.99718e-06
-2.53196e-06
5.82409e-06
-2.02788e-06
6.43795e-06
-1.60126e-06
6.89079e-06
-1.25702e-06
7.2205e-06
-9.88806e-07
7.45932e-06
-7.85028e-07
7.62786e-06
-6.24247e-07
7.74536e-06
-4.94881e-07
7.81425e-06
-3.68371e-07
7.83486e-06
-2.40546e-07
7.74095e-06
-1.09622e-08
7.55151e-06
1.97658e-07
7.19852e-06
7.05373e-07
6.53526e-06
1.39461e-06
5.34934e-06
3.08151e-06
2.92982e-06
5.91928e-06
1.06529e-05
9.37011e-07
-5.16422e-06
2.07956e-06
-4.84286e-06
3.03382e-06
-4.04712e-06
3.74747e-06
-3.24561e-06
4.25071e-06
-2.53113e-06
4.58655e-06
-1.9371e-06
4.79488e-06
-1.46536e-06
4.91076e-06
-1.10468e-06
4.96e-06
-8.34268e-07
4.96331e-06
-6.27556e-07
4.92774e-06
-4.59312e-07
4.85866e-06
-2.99286e-07
4.7408e-06
-1.22692e-07
4.59928e-06
1.30562e-07
4.31655e-06
4.80385e-07
3.9253e-06
1.09662e-06
3.25241e-06
2.06751e-06
2.40884e-06
3.92507e-06
1.09147e-06
7.23665e-06
1.17444e-05
6.95843e-07
-5.86006e-06
1.34963e-06
-5.49664e-06
1.92113e-06
-4.61862e-06
2.35978e-06
-3.68426e-06
2.66247e-06
-2.83382e-06
2.85174e-06
-2.12637e-06
2.95688e-06
-1.5705e-06
3.00252e-06
-1.15032e-06
3.00587e-06
-8.37616e-07
2.97843e-06
-6.00116e-07
2.92425e-06
-4.05131e-07
2.84275e-06
-2.17787e-07
2.72424e-06
-4.1882e-09
2.5628e-06
2.92009e-07
2.32851e-06
7.14672e-07
2.02368e-06
1.40146e-06
1.55124e-06
2.53994e-06
1.01466e-06
4.46166e-06
4.04251e-07
7.84705e-06
1.21486e-05
3.34387e-07
-6.19445e-06
5.2477e-07
-5.68703e-06
7.18964e-07
-4.81282e-06
8.85801e-07
-3.8511e-06
1.00309e-06
-2.95111e-06
1.07399e-06
-2.19727e-06
1.10914e-06
-1.60565e-06
1.1187e-06
-1.15988e-06
1.10957e-06
-8.28491e-07
1.08578e-06
-5.76321e-07
1.04766e-06
-3.6701e-07
9.92974e-07
-1.63103e-07
9.14938e-07
7.38476e-08
8.09656e-07
3.9729e-07
6.65627e-07
8.58701e-07
4.83676e-07
1.58341e-06
3.08951e-07
2.71467e-06
-9.79953e-08
4.8686e-06
-1.87e-07
7.93606e-06
1.19616e-05
-2.24634e-07
-5.96981e-06
-4.26639e-07
-5.48502e-06
-5.68684e-07
-4.67077e-06
-6.68819e-07
-3.75096e-06
-7.45812e-07
-2.87411e-06
-8.03909e-07
-2.13917e-06
-8.45704e-07
-1.56386e-06
-8.74302e-07
-1.13128e-06
-8.93892e-07
-8.08902e-07
-9.07983e-07
-5.6223e-07
-9.20863e-07
-3.5413e-07
-9.36827e-07
-1.47139e-07
-9.60204e-07
9.72249e-08
-9.88336e-07
4.25422e-07
-1.02011e-06
8.9047e-07
-1.04298e-06
1.60628e-06
-1.06421e-06
2.73591e-06
-9.95015e-07
4.7994e-06
-8.74752e-07
7.8158e-06
1.10869e-05
-7.24086e-07
-5.24573e-06
-1.41342e-06
-4.79569e-06
-1.9339e-06
-4.15029e-06
-2.32926e-06
-3.3556e-06
-2.61677e-06
-2.5866e-06
-2.81822e-06
-1.93773e-06
-2.95459e-06
-1.42748e-06
-3.04201e-06
-1.04386e-06
-3.09424e-06
-7.56671e-07
-3.12064e-06
-5.35831e-07
-3.12888e-06
-3.45895e-07
-3.12557e-06
-1.50439e-07
-3.11411e-06
8.57627e-08
-3.08016e-06
3.91474e-07
-3.01969e-06
8.29994e-07
-2.91626e-06
1.50285e-06
-2.76505e-06
2.58469e-06
-2.39312e-06
4.42748e-06
-1.755e-06
7.17768e-06
9.33189e-06
-1.29937e-06
-3.94635e-06
-2.47157e-06
-3.62349e-06
-3.41549e-06
-3.20637e-06
-4.14476e-06
-2.62634e-06
-4.68361e-06
-2.04774e-06
-5.0683e-06
-1.55304e-06
-5.33986e-06
-1.15592e-06
-5.53091e-06
-8.52821e-07
-5.66515e-06
-6.22432e-07
-5.75926e-06
-4.41721e-07
-5.82452e-06
-2.80628e-07
-5.86873e-06
-1.06236e-07
-5.88281e-06
9.98444e-08
-5.84305e-06
3.51712e-07
-5.72131e-06
7.08254e-07
-5.4737e-06
1.25524e-06
-5.0289e-06
2.13989e-06
-4.1632e-06
3.56178e-06
-2.4907e-06
5.50517e-06
6.84119e-06
-1.81808e-06
-2.12827e-06
-3.48962e-06
-1.95196e-06
-4.93963e-06
-1.75635e-06
-6.11497e-06
-1.451e-06
-7.01784e-06
-1.14486e-06
-7.68734e-06
-8.83547e-07
-8.17479e-06
-6.6847e-07
-8.53278e-06
-4.94828e-07
-8.79983e-06
-3.55382e-07
-8.99794e-06
-2.43606e-07
-9.13644e-06
-1.42129e-07
-9.21075e-06
-3.19279e-08
-9.19615e-06
8.52434e-08
-9.06574e-06
2.21305e-07
-8.77234e-06
4.14847e-07
-8.22459e-06
7.07491e-07
-7.27642e-06
1.19173e-06
-5.6832e-06
1.96857e-06
-3.27896e-06
3.10093e-06
3.56223e-06
-2.16342e-06
3.5145e-08
-4.15005e-06
3.46705e-08
-5.94559e-06
3.91929e-08
-7.44051e-06
4.39158e-08
-8.63083e-06
4.54562e-08
-9.55988e-06
4.54987e-08
-1.02692e-05
4.08248e-08
-1.07992e-05
3.51637e-08
-1.11819e-05
2.73826e-08
-1.14449e-05
1.93497e-08
-1.15982e-05
1.12019e-08
-1.16327e-05
2.54949e-09
-1.15428e-05
-4.62987e-09
-1.13089e-05
-1.25751e-08
-1.0874e-05
-2.00755e-08
-1.01361e-05
-3.03915e-08
-8.90113e-06
-4.32756e-08
-6.86949e-06
-6.30738e-08
-3.67954e-06
-8.90176e-08
-1.1731e-07
-2.15214e-06
2.18728e-06
-4.12991e-06
2.01244e-06
-5.91655e-06
1.82583e-06
-7.40333e-06
1.53069e-06
-8.58551e-06
1.22764e-06
-9.50411e-06
9.64097e-07
-1.02051e-05
7.41838e-07
-1.07289e-05
5.58906e-07
-1.11078e-05
4.0637e-07
-1.13692e-05
2.80657e-07
-1.15222e-05
1.64261e-07
-1.15574e-05
3.77517e-08
-1.14688e-05
-9.32936e-08
-1.12371e-05
-2.44272e-07
-1.08056e-05
-4.51559e-07
-1.00734e-05
-7.62558e-07
-8.84627e-06
-1.27042e-06
-6.82567e-06
-2.08367e-06
-3.65237e-06
-3.26232e-06
-3.76968e-06
-1.79961e-06
3.98689e-06
-3.45658e-06
3.66941e-06
-4.89326e-06
3.26252e-06
-6.05551e-06
2.69294e-06
-6.94596e-06
2.11809e-06
-7.60071e-06
1.61885e-06
-8.07232e-06
1.21345e-06
-8.41297e-06
8.99547e-07
-8.66327e-06
6.56672e-07
-8.84679e-06
4.64182e-07
-8.97422e-06
2.91691e-07
-9.04366e-06
1.07187e-07
-9.0292e-06
-1.07754e-07
-8.90336e-06
-3.70112e-07
-8.61885e-06
-7.36069e-07
-8.08632e-06
-1.29508e-06
-7.1609e-06
-2.19584e-06
-5.59868e-06
-3.64589e-06
-3.23143e-06
-5.62958e-06
-7.00111e-06
-1.28272e-06
5.26961e-06
-2.44396e-06
4.83065e-06
-3.37919e-06
4.19775e-06
-4.09898e-06
3.41273e-06
-4.6265e-06
2.64561e-06
-4.99877e-06
1.99112e-06
-5.2568e-06
1.47148e-06
-5.43377e-06
1.07651e-06
-5.55455e-06
7.77452e-07
-5.63582e-06
5.45459e-07
-5.68941e-06
3.4528e-07
-5.72394e-06
1.41716e-07
-5.73131e-06
-1.00388e-07
-5.68877e-06
-4.12648e-07
-5.569e-06
-8.55838e-07
-5.33026e-06
-1.53382e-06
-4.90503e-06
-2.62107e-06
-4.07451e-06
-4.47641e-06
-2.44939e-06
-7.25469e-06
-9.4505e-06
-7.11421e-07
5.98103e-06
-1.3914e-06
5.51063e-06
-1.90365e-06
4.71e-06
-2.29031e-06
3.79939e-06
-2.56835e-06
2.92365e-06
-2.76053e-06
2.18329e-06
-2.88807e-06
1.59902e-06
-2.9674e-06
1.15585e-06
-3.0128e-06
8.22844e-07
-3.03359e-06
5.66257e-07
-3.03759e-06
3.49279e-07
-3.0312e-06
1.35323e-07
-3.01678e-06
-1.14807e-07
-2.98201e-06
-4.47422e-07
-2.92155e-06
-9.16295e-07
-2.81974e-06
-1.63563e-06
-2.67354e-06
-2.76726e-06
-2.31364e-06
-4.83632e-06
-1.71232e-06
-7.85602e-06
-1.11628e-05
-2.14304e-07
6.19533e-06
-4.08095e-07
5.70442e-06
-5.42594e-07
4.8445e-06
-6.34064e-07
3.89086e-06
-7.02589e-07
2.99218e-06
-7.53263e-07
2.23397e-06
-7.88873e-07
1.63463e-06
-8.12666e-07
1.17964e-06
-8.28849e-07
8.39028e-07
-8.40886e-07
5.78294e-07
-8.53046e-07
3.6144e-07
-8.69201e-07
1.51477e-07
-8.93501e-07
-9.05066e-08
-9.23533e-07
-4.1739e-07
-9.58218e-07
-8.8161e-07
-9.85498e-07
-1.60835e-06
-1.00889e-06
-2.74387e-06
-9.51029e-07
-4.89417e-06
-8.47592e-07
-7.95946e-06
-1.20104e-05
3.42015e-07
5.85332e-06
5.40038e-07
5.5064e-06
7.42372e-07
4.64216e-06
9.17594e-07
3.71564e-06
1.04293e-06
2.86684e-06
1.12072e-06
2.15618e-06
1.16116e-06
1.5942e-06
1.17425e-06
1.16655e-06
1.16701e-06
8.46264e-07
1.14361e-06
6.01702e-07
1.10447e-06
4.00572e-07
1.04788e-06
2.08074e-07
9.67061e-07
-9.69062e-09
8.58561e-07
-3.0889e-07
7.10914e-07
-7.33962e-07
5.25414e-07
-1.42285e-06
3.41547e-07
-2.56001e-06
-7.59336e-08
-4.47669e-06
-1.61059e-07
-7.87433e-06
-1.21715e-05
6.99619e-07
5.1537e-06
1.36081e-06
4.84521e-06
1.94025e-06
4.06272e-06
2.38824e-06
3.26765e-06
2.69996e-06
2.55512e-06
2.8967e-06
1.95944e-06
3.00725e-06
1.48365e-06
3.05616e-06
1.11764e-06
3.06075e-06
8.41672e-07
3.03281e-06
6.29644e-07
2.9766e-06
4.56778e-07
2.89204e-06
2.92633e-07
2.76899e-06
1.13361e-07
2.60324e-06
-1.43144e-07
2.36346e-06
-4.94182e-07
2.05243e-06
-1.11182e-06
1.57364e-06
-2.08122e-06
1.03642e-06
-3.93948e-06
4.12876e-07
-7.25078e-06
-1.17586e-05
9.36415e-07
4.21729e-06
2.08376e-06
3.69786e-06
3.04657e-06
3.09991e-06
3.76984e-06
2.54438e-06
4.2826e-06
2.04236e-06
4.62687e-06
1.61516e-06
4.84164e-06
1.26887e-06
4.96166e-06
9.97628e-07
5.01257e-06
7.90763e-07
5.01541e-06
6.26799e-07
4.97737e-06
4.94817e-07
4.90453e-06
3.65477e-07
4.78224e-06
2.35649e-07
4.635e-06
4.09556e-09
4.34543e-06
-2.04614e-07
3.94817e-06
-7.14552e-07
3.26965e-06
-1.4027e-06
2.42103e-06
-3.09086e-06
1.09735e-06
-5.9271e-06
-1.06612e-05
1.01178e-06
3.2055e-06
2.50585e-06
2.20379e-06
3.9003e-06
1.70546e-06
5.0068e-06
1.43789e-06
5.84262e-06
1.20653e-06
6.46481e-06
9.92972e-07
6.92447e-06
8.09216e-07
7.25915e-06
6.62951e-07
7.50084e-06
5.49071e-07
7.67041e-06
4.57226e-07
7.78705e-06
3.78177e-07
7.85361e-06
2.98923e-07
7.87019e-06
2.19062e-07
7.77149e-06
1.02796e-07
7.5769e-06
-1.00205e-08
7.21867e-06
-3.56323e-07
6.5503e-06
-7.34325e-07
5.35921e-06
-1.89977e-06
2.9352e-06
-3.5031e-06
-7.72604e-06
3.2055e-06
5.4093e-06
7.11476e-06
8.55265e-06
9.75918e-06
1.07522e-05
1.15614e-05
1.22243e-05
1.27734e-05
1.32306e-05
1.36088e-05
1.39077e-05
1.41268e-05
1.42296e-05
1.42196e-05
1.38632e-05
1.31289e-05
1.12291e-05
7.72604e-06
)
;

boundaryField
{
    movingWall
    {
        type            calculated;
        value           uniform 0;
    }
    movingWallBottom
    {
        type            calculated;
        value           uniform 0;
    }
    fixedWalls
    {
        type            calculated;
        value           uniform 0;
    }
    frontAndBack
    {
        type            empty;
        value           nonuniform 0();
    }
}


// ************************************************************************* //
