/*--------------------------------*- C++ -*----------------------------------*\
| =========                 |                                                 |
| \\      /  F ield         | OpenFOAM: The Open Source CFD Toolbox           |
|  \\    /   O peration     | Version:  4.1                                   |
|   \\  /    A nd           | Web:      www.OpenFOAM.org                      |
|    \\/     M anipulation  |                                                 |
\*---------------------------------------------------------------------------*/
FoamFile
{
    version     2.0;
    format      ascii;
    class       volVectorField;
    location    "7";
    object      U;
}
// * * * * * * * * * * * * * * * * * * * * * * * * * * * * * * * * * * * * * //

dimensions      [0 1 -1 0 0 0 0];

internalField   nonuniform List<vector> 
400
(
(0.0636652 -0.098852 0)
(0.0774451 -0.0639407 0)
(0.123526 -0.0435056 0)
(0.158061 -0.0339616 0)
(0.184577 -0.0280534 0)
(0.206139 -0.0236133 0)
(0.223655 -0.019986 0)
(0.238471 -0.0170733 0)
(0.250226 -0.0146257 0)
(0.260373 -0.0126655 0)
(0.268017 -0.0108446 0)
(0.274872 -0.00933894 0)
(0.279183 -0.00760734 0)
(0.282793 -0.00603787 0)
(0.282942 -0.00363225 0)
(0.279633 -0.000453823 0)
(0.269156 0.0014034 0)
(0.250331 0.0117488 0)
(0.188694 0.0225283 0)
(0.172464 0.117431 0)
(0.0155503 -0.0513742 0)
(0.0309717 -0.0420429 0)
(0.0639504 -0.0368268 0)
(0.088664 -0.0316586 0)
(0.108259 -0.0263057 0)
(0.123118 -0.0212244 0)
(0.133966 -0.016832 0)
(0.141918 -0.0133397 0)
(0.147358 -0.010749 0)
(0.151422 -0.00867025 0)
(0.153783 -0.00703938 0)
(0.155804 -0.00518779 0)
(0.155915 -0.00352738 0)
(0.155946 3.83841e-05 0)
(0.15162 0.00309582 0)
(0.148378 0.0114926 0)
(0.133897 0.0215055 0)
(0.126638 0.0502545 0)
(0.0651552 0.0940078 0)
(0.0899238 0.164397 0)
(0.0110251 -0.100931 0)
(0.0292711 -0.0930054 0)
(0.0510617 -0.0786486 0)
(0.0676578 -0.0646048 0)
(0.0801964 -0.0511994 0)
(0.0889715 -0.0396379 0)
(0.0944652 -0.0304066 0)
(0.0976003 -0.0233564 0)
(0.0990714 -0.0180654 0)
(0.0994956 -0.014001 0)
(0.0990045 -0.0107109 0)
(0.0980324 -0.00768371 0)
(0.0958196 -0.00443663 0)
(0.093733 -1.98618e-05 0)
(0.0882864 0.00614319 0)
(0.0841707 0.0176846 0)
(0.0688948 0.0351849 0)
(0.067687 0.0726388 0)
(0.0128303 0.135667 0)
(0.04969 0.222574 0)
(0.00702055 -0.113522 0)
(0.0204237 -0.106325 0)
(0.0318148 -0.0885318 0)
(0.0426287 -0.0700588 0)
(0.0505282 -0.0539874 0)
(0.0556368 -0.0408467 0)
(0.0585492 -0.0304877 0)
(0.0599446 -0.0225968 0)
(0.0603241 -0.0166839 0)
(0.0600129 -0.0121797 0)
(0.0591428 -0.00850401 0)
(0.057778 -0.00501231 0)
(0.055687 -0.00106537 0)
(0.0530467 0.00448424 0)
(0.0486813 0.0122322 0)
(0.0447419 0.0252143 0)
(0.0326384 0.0466529 0)
(0.0368805 0.0857401 0)
(-0.00665572 0.154931 0)
(0.0320671 0.250425 0)
(0.00263588 -0.123417 0)
(0.00887219 -0.115015 0)
(0.0113998 -0.0969044 0)
(0.0156767 -0.0774159 0)
(0.0189244 -0.059289 0)
(0.0210008 -0.0441611 0)
(0.0220878 -0.0323379 0)
(0.0224934 -0.0234254 0)
(0.022434 -0.0168034 0)
(0.0220604 -0.0117946 0)
(0.0214054 -0.00769253 0)
(0.0204572 -0.00372789 0)
(0.019091 0.000864839 0)
(0.0172941 0.00708131 0)
(0.0146846 0.0160029 0)
(0.0123958 0.0302272 0)
(0.00421596 0.0530968 0)
(0.0121887 0.0941521 0)
(-0.0193485 0.162526 0)
(0.0174895 0.251387 0)
(-0.00540053 -0.123931 0)
(-0.00589431 -0.113171 0)
(-0.0112005 -0.0961238 0)
(-0.0130641 -0.0770829 0)
(-0.0144296 -0.0590685 0)
(-0.015563 -0.0439536 0)
(-0.0164583 -0.0320924 0)
(-0.0171438 -0.0231873 0)
(-0.0176253 -0.0165613 0)
(-0.0179852 -0.0114863 0)
(-0.0182818 -0.00723299 0)
(-0.0185939 -0.0030443 0)
(-0.0190468 0.00184707 0)
(-0.0196055 0.00841253 0)
(-0.0202554 0.0178772 0)
(-0.0208209 0.0324465 0)
(-0.0237885 0.0552087 0)
(-0.0140654 0.0965925 0)
(-0.0325378 0.159743 0)
(0.00816451 0.238119 0)
(-0.0116495 -0.111949 0)
(-0.0216275 -0.103904 0)
(-0.0352455 -0.0893146 0)
(-0.0440556 -0.0720111 0)
(-0.0501905 -0.0553742 0)
(-0.0547127 -0.041368 0)
(-0.0578559 -0.0303626 0)
(-0.0600371 -0.0220622 0)
(-0.0614009 -0.015892 0)
(-0.0621808 -0.0111773 0)
(-0.0625519 -0.00714522 0)
(-0.0626609 -0.00307107 0)
(-0.0625878 0.00181056 0)
(-0.0622407 0.00836448 0)
(-0.0617262 0.0173089 0)
(-0.0608282 0.0308666 0)
(-0.0587971 0.0532148 0)
(-0.0484627 0.0939483 0)
(-0.0503065 0.15466 0)
(-0.00666287 0.21125 0)
(-0.0197957 -0.0913794 0)
(-0.0382048 -0.0844271 0)
(-0.0609798 -0.074127 0)
(-0.0778507 -0.0603881 0)
(-0.08952 -0.0469837 0)
(-0.0982615 -0.0354925 0)
(-0.104334 -0.0263221 0)
(-0.108872 -0.0193856 0)
(-0.112017 -0.0140975 0)
(-0.114298 -0.00994202 0)
(-0.115934 -0.00631934 0)
(-0.117117 -0.00254841 0)
(-0.117902 0.00204723 0)
(-0.118187 0.00805045 0)
(-0.117647 0.0167471 0)
(-0.114783 0.0302964 0)
(-0.107306 0.0519505 0)
(-0.0907453 0.0874661 0)
(-0.0674127 0.136411 0)
(-0.0193185 0.171421 0)
(-0.0262627 -0.0593878 0)
(-0.0535086 -0.0553375 0)
(-0.0865069 -0.0493349 0)
(-0.11375 -0.0402212 0)
(-0.133148 -0.0311837 0)
(-0.148472 -0.0238193 0)
(-0.159113 -0.0179255 0)
(-0.167372 -0.0132639 0)
(-0.17335 -0.00959587 0)
(-0.178169 -0.0066601 0)
(-0.181531 -0.00395528 0)
(-0.18392 -0.000997979 0)
(-0.185235 0.00267163 0)
(-0.184963 0.00735166 0)
(-0.181892 0.0138481 0)
(-0.174122 0.023806 0)
(-0.157855 0.0399334 0)
(-0.128842 0.065124 0)
(-0.0803506 0.0984586 0)
(-0.0454636 0.113971 0)
(-0.0309331 -0.020589 0)
(-0.0631663 -0.0189341 0)
(-0.103053 -0.0171723 0)
(-0.138085 -0.0144429 0)
(-0.162775 -0.0117574 0)
(-0.183483 -0.0089578 0)
(-0.198947 -0.00649959 0)
(-0.211238 -0.00457369 0)
(-0.220084 -0.00306578 0)
(-0.226675 -0.00187179 0)
(-0.230836 -0.000804988 0)
(-0.233058 0.000221815 0)
(-0.23364 0.00164634 0)
(-0.231779 0.00323724 0)
(-0.226452 0.00571593 0)
(-0.21431 0.00941674 0)
(-0.191592 0.0156095 0)
(-0.153884 0.0250976 0)
(-0.0993012 0.0372315 0)
(-0.0496845 0.0413964 0)
(-0.0307601 0.0218716 0)
(-0.0628559 0.0202294 0)
(-0.102548 0.0186434 0)
(-0.137421 0.0160886 0)
(-0.161993 0.0134425 0)
(-0.182443 0.0106455 0)
(-0.19775 0.00801827 0)
(-0.209885 0.00588533 0)
(-0.218618 0.00409522 0)
(-0.225169 0.00260011 0)
(-0.229299 0.0012142 0)
(-0.231609 -0.00015373 0)
(-0.232074 -0.0018868 0)
(-0.230322 -0.00383904 0)
(-0.224999 -0.00666618 0)
(-0.213004 -0.0108497 0)
(-0.190427 -0.0176478 0)
(-0.152961 -0.0280382 0)
(-0.0986113 -0.0412669 0)
(-0.0488721 -0.0466355 0)
(-0.0259988 0.0603863 0)
(-0.0529691 0.0564086 0)
(-0.0856982 0.0505911 0)
(-0.112717 0.0417062 0)
(-0.131835 0.0327654 0)
(-0.146907 0.0253027 0)
(-0.157233 0.0192583 0)
(-0.165163 0.0144045 0)
(-0.170789 0.0104758 0)
(-0.175276 0.00728333 0)
(-0.178366 0.00432239 0)
(-0.18058 0.0011121 0)
(-0.181831 -0.00279102 0)
(-0.181595 -0.00774205 0)
(-0.178661 -0.0144741 0)
(-0.171136 -0.0247355 0)
(-0.155283 -0.0412627 0)
(-0.126846 -0.0670953 0)
(-0.0793789 -0.10129 0)
(-0.0440891 -0.117394 0)
(-0.0195387 0.0920317 0)
(-0.0377207 0.0852277 0)
(-0.0603381 0.0751487 0)
(-0.0770576 0.0616 0)
(-0.0885043 0.0482401 0)
(-0.0970216 0.0366586 0)
(-0.102815 0.0273179 0)
(-0.107066 0.0201598 0)
(-0.109948 0.0146454 0)
(-0.111947 0.0102724 0)
(-0.113339 0.00643454 0)
(-0.114297 0.00248979 0)
(-0.114918 -0.00225504 0)
(-0.115065 -0.00837753 0)
(-0.11448 -0.0171506 0)
(-0.111746 -0.0308074 0)
(-0.104569 -0.0526351 0)
(-0.0885092 -0.0885724 0)
(-0.0665409 -0.138264 0)
(-0.0185326 -0.174185 0)
(-0.0114578 0.112325 0)
(-0.0212469 0.104523 0)
(-0.0347227 0.090192 0)
(-0.0433866 0.0730663 0)
(-0.0493301 0.0564527 0)
(-0.0536602 0.0423335 0)
(-0.0566146 0.031143 0)
(-0.0586205 0.0226215 0)
(-0.0598333 0.0162225 0)
(-0.0604892 0.0112937 0)
(-0.0607611 0.00707085 0)
(-0.0607919 0.00284371 0)
(-0.0606625 -0.00215908 0)
(-0.060267 -0.00881038 0)
(-0.0597213 -0.0178489 0)
(-0.0588196 -0.0314648 0)
(-0.0569277 -0.0537828 0)
(-0.0465999 -0.0945085 0)
(-0.0492765 -0.155394 0)
(-0.00614328 -0.212935 0)
(-0.00522393 0.124067 0)
(-0.00558807 0.113608 0)
(-0.0107532 0.0968308 0)
(-0.0124623 0.0779654 0)
(-0.0136564 0.0599753 0)
(-0.0146265 0.0447618 0)
(-0.0153801 0.0327296 0)
(-0.0159538 0.0236216 0)
(-0.0163497 0.0167947 0)
(-0.0166564 0.0115354 0)
(-0.0169249 0.00711824 0)
(-0.0172313 0.00279733 0)
(-0.0176956 -0.00219555 0)
(-0.0182797 -0.00884283 0)
(-0.0189752 -0.0183718 0)
(-0.0195755 -0.0330187 0)
(-0.0227014 -0.0558878 0)
(-0.0129445 -0.0973063 0)
(-0.0318718 -0.160477 0)
(0.00842611 -0.239323 0)
(0.00273064 0.123385 0)
(0.00909559 0.115311 0)
(0.0117773 0.0974799 0)
(0.0162121 0.0781515 0)
(0.0196306 0.06005 0)
(0.0218651 0.044838 0)
(0.0230803 0.0328698 0)
(0.0235768 0.0237877 0)
(0.0235738 0.0169954 0)
(0.0232217 0.0118272 0)
(0.0225594 0.00758612 0)
(0.0215821 0.00350825 0)
(0.0201654 -0.0011694 0)
(0.0183125 -0.00745645 0)
(0.0156282 -0.0164305 0)
(0.0132638 -0.0306881 0)
(0.00494409 -0.0535621 0)
(0.0129827 -0.0945172 0)
(-0.0189068 -0.162926 0)
(0.0177034 -0.252092 0)
(0.00712181 0.113324 0)
(0.0205819 0.106437 0)
(0.0321045 0.0889361 0)
(0.0430835 0.070604 0)
(0.0511765 0.0545599 0)
(0.0564601 0.041369 0)
(0.0595089 0.0309094 0)
(0.060995 0.0228912 0)
(0.0614197 0.0168457 0)
(0.0611152 0.0122159 0)
(0.0602178 0.00843002 0)
(0.0588025 0.00484078 0)
(0.0566308 0.00082318 0)
(0.0539087 -0.00477912 0)
(0.0494339 -0.0125681 0)
(0.0454005 -0.0255864 0)
(0.0331478 -0.0470094 0)
(0.0373133 -0.0860931 0)
(-0.00632813 -0.155436 0)
(0.0321742 -0.250769 0)
(0.0110448 0.100717 0)
(0.0292799 0.0930133 0)
(0.051215 0.0788816 0)
(0.0680007 0.0649561 0)
(0.0807222 0.0516107 0)
(0.0896856 0.0400337 0)
(0.0953378 0.0307388 0)
(0.0985867 0.0235997 0)
(0.100117 0.0182168 0)
(0.100556 0.0140641 0)
(0.10003 0.0106977 0)
(0.0989981 0.00759952 0)
(0.0966927 0.0043 0)
(0.0945175 -0.000162265 0)
(0.0889246 -0.0063578 0)
(0.0847158 -0.0179283 0)
(0.0692769 -0.0354084 0)
(0.0679956 -0.072876 0)
(0.0129875 -0.135844 0)
(0.0498077 -0.222802 0)
(0.0154746 0.0511835 0)
(0.0308694 0.041929 0)
(0.0639055 0.0368838 0)
(0.0887636 0.0318267 0)
(0.108521 0.0265047 0)
(0.123556 0.021418 0)
(0.134556 0.0169998 0)
(0.142643 0.0134646 0)
(0.148162 0.0108326 0)
(0.15228 0.0087087 0)
(0.15463 0.00704612 0)
(0.15663 0.00515364 0)
(0.156661 0.00347352 0)
(0.156614 -0.000131676 0)
(0.152166 -0.00317814 0)
(0.148846 -0.0116188 0)
(0.134225 -0.0216042 0)
(0.126884 -0.0503631 0)
(0.065311 -0.0941243 0)
(0.0900056 -0.164497 0)
(0.0635834 0.0988186 0)
(0.07734 0.0638983 0)
(0.123356 0.0434775 0)
(0.157946 0.0339563 0)
(0.184547 0.0280661 0)
(0.20623 0.0236327 0)
(0.223849 0.0200126 0)
(0.238775 0.0170973 0)
(0.250596 0.0146543 0)
(0.260808 0.0126866 0)
(0.268465 0.010871 0)
(0.275335 0.0093509 0)
(0.279617 0.00762578 0)
(0.283205 0.00603336 0)
(0.283289 0.00364355 0)
(0.279934 0.00044338 0)
(0.269387 -0.00139795 0)
(0.250505 -0.011774 0)
(0.188779 -0.0225326 0)
(0.172508 -0.117423 0)
)
;

boundaryField
{
    movingWall
    {
        type            fixedValue;
        value           uniform (1 0 0);
    }
    movingWallBottom
    {
        type            fixedValue;
        value           uniform (1 0 0);
    }
    fixedWalls
    {
        type            noSlip;
    }
    frontAndBack
    {
        type            empty;
    }
}


// ************************************************************************* //
