/*--------------------------------*- C++ -*----------------------------------*\
| =========                 |                                                 |
| \\      /  F ield         | OpenFOAM: The Open Source CFD Toolbox           |
|  \\    /   O peration     | Version:  4.1                                   |
|   \\  /    A nd           | Web:      www.OpenFOAM.org                      |
|    \\/     M anipulation  |                                                 |
\*---------------------------------------------------------------------------*/
FoamFile
{
    version     2.0;
    format      ascii;
    class       volScalarField;
    location    "4.5";
    object      epsilon;
}
// * * * * * * * * * * * * * * * * * * * * * * * * * * * * * * * * * * * * * //

dimensions      [0 2 -3 0 0 0 0];

internalField   nonuniform List<scalar> 
400
(
0.0396286
0.0683479
0.0887355
0.0984912
0.105175
0.110337
0.114705
0.118446
0.121694
0.124549
0.127066
0.129509
0.131866
0.134455
0.137685
0.140718
0.144402
0.149433
0.166241
0.145715
0.0100863
0.0080856
0.00844435
0.00903486
0.00974761
0.010613
0.0116681
0.0129963
0.0144687
0.0161669
0.0178633
0.0198172
0.0215062
0.0236304
0.0251171
0.0291711
0.0344528
0.047101
0.0736595
0.108626
0.0115186
0.00588241
0.00414921
0.00358945
0.00352474
0.00366216
0.00404175
0.0046896
0.00547509
0.00638459
0.00729509
0.00823549
0.00900818
0.00975647
0.0101842
0.0111053
0.0127776
0.0188381
0.036326
0.0804607
0.012403
0.00510286
0.00345452
0.00303985
0.00308363
0.00333744
0.00384893
0.00448593
0.00515982
0.00579711
0.00630514
0.00664226
0.00675865
0.00674618
0.00659496
0.00667006
0.00731989
0.0112528
0.0242692
0.0658579
0.0130066
0.00487952
0.00344102
0.00331029
0.0036141
0.004169
0.00479062
0.00540664
0.00592698
0.00628438
0.0064104
0.00630823
0.00597796
0.00548875
0.00495158
0.00471613
0.00517327
0.00859206
0.0195288
0.0572227
0.0132752
0.0048952
0.00395283
0.00392242
0.00449596
0.0051864
0.0058503
0.00638978
0.00670555
0.00678173
0.00656624
0.00609141
0.00541134
0.00463716
0.00397535
0.00372792
0.00439977
0.00776896
0.0186481
0.0505183
0.0135025
0.00570845
0.00460518
0.00451685
0.00519216
0.00597483
0.00661455
0.00701454
0.00716201
0.00705784
0.00659617
0.00589989
0.00507468
0.00427305
0.00384275
0.0037705
0.00471583
0.00834238
0.0193676
0.0444111
0.0136616
0.00638945
0.00492614
0.00478376
0.00545566
0.00625642
0.00682521
0.00709759
0.00716351
0.00689403
0.00635288
0.00569788
0.0050485
0.00465261
0.00452105
0.00480314
0.00631463
0.0104733
0.021323
0.0378037
0.0136835
0.00712683
0.00490678
0.00434261
0.00435899
0.00484338
0.00513403
0.00533375
0.00540774
0.00541867
0.00540911
0.00543849
0.00561934
0.00597593
0.00665744
0.00793671
0.0103782
0.0148033
0.0217789
0.0297638
0.0136427
0.00750598
0.0047274
0.00369141
0.00343108
0.00340429
0.00356372
0.00379208
0.00410936
0.00450615
0.00501908
0.00566355
0.00649969
0.00758468
0.00903966
0.0110061
0.0136382
0.0167815
0.0183145
0.0167949
0.0136264
0.00750092
0.00472485
0.00368996
0.00343077
0.00340532
0.00356916
0.00379855
0.00411568
0.00450994
0.0050192
0.00565771
0.00648772
0.00756425
0.00901322
0.0109769
0.0136194
0.016833
0.0184166
0.0170562
0.0136507
0.00711192
0.0048822
0.00431009
0.00431535
0.00480407
0.00510269
0.00531608
0.00539839
0.00541194
0.00540146
0.0054138
0.00557875
0.00591339
0.00656633
0.00782075
0.0102379
0.0146773
0.0217947
0.0300242
0.013623
0.00637097
0.00489667
0.00474669
0.00540394
0.00620239
0.00677138
0.00704566
0.00711356
0.00685547
0.00632007
0.00566885
0.0050178
0.00461163
0.00447535
0.00474394
0.00623918
0.0103753
0.021225
0.0379183
0.013456
0.00569139
0.00458088
0.00448719
0.0051527
0.00593273
0.00656789
0.00696344
0.00710904
0.00700617
0.00654949
0.00586032
0.00504297
0.00424795
0.00381918
0.003748
0.00468576
0.00829234
0.0192961
0.0444913
0.0132287
0.00488141
0.0039378
0.00390598
0.00447715
0.00516423
0.00582118
0.00635324
0.00666511
0.00674085
0.00652845
0.00606047
0.0053889
0.00462329
0.00396639
0.00371953
0.0043874
0.00774126
0.0185886
0.0505534
0.0129618
0.0048653
0.00343122
0.00330269
0.00360666
0.00415947
0.00477515
0.00538391
0.00589842
0.00625294
0.00637968
0.00628085
0.00595695
0.00547448
0.00494376
0.00471348
0.00516972
0.00857582
0.0194787
0.0572313
0.0123624
0.00508836
0.00344654
0.00303658
0.00308055
0.00333222
0.00383838
0.00446793
0.0051345
0.00576649
0.00627168
0.00660955
0.00672962
0.00672114
0.00657757
0.00665778
0.00731021
0.0112393
0.0242566
0.0658392
0.0114787
0.00586525
0.00414183
0.00358657
0.00352157
0.00365679
0.00403042
0.0046694
0.00544413
0.00634438
0.00724616
0.00818245
0.00895285
0.00970478
0.0101387
0.0110718
0.0127482
0.0188099
0.0363015
0.0804367
0.0100594
0.00807034
0.00843496
0.00902659
0.00973282
0.0105907
0.0116338
0.0129507
0.0144068
0.0160935
0.017773
0.0197184
0.0213977
0.0235136
0.025014
0.0290848
0.0343712
0.0470322
0.0736137
0.108559
0.0396263
0.0683882
0.0887707
0.098508
0.105151
0.110277
0.114602
0.118321
0.121533
0.124383
0.126871
0.129321
0.131663
0.134264
0.137493
0.140528
0.144221
0.14926
0.166092
0.145614
)
;

boundaryField
{
    movingWall
    {
        Cmu             0.09;
        kappa           0.41;
        E               9.8;
        type            epsilonWallFunction;
        value           nonuniform List<scalar> 
20
(
0.0396263
0.0683882
0.0887707
0.098508
0.105151
0.110277
0.114602
0.118321
0.121533
0.124383
0.126871
0.129321
0.131663
0.134264
0.137493
0.140528
0.144221
0.14926
0.166092
0.145614
)
;
    }
    movingWallBottom
    {
        Cmu             0.09;
        kappa           0.41;
        E               9.8;
        type            epsilonWallFunction;
        value           nonuniform List<scalar> 
20
(
0.0396286
0.0683479
0.0887355
0.0984912
0.105175
0.110337
0.114705
0.118446
0.121694
0.124549
0.127066
0.129509
0.131866
0.134455
0.137685
0.140718
0.144402
0.149433
0.166241
0.145715
)
;
    }
    fixedWalls
    {
        Cmu             0.09;
        kappa           0.41;
        E               9.8;
        type            epsilonWallFunction;
        value           nonuniform List<scalar> 
40
(
0.0396286
0.0100863
0.0115186
0.012403
0.0130066
0.0132752
0.0135025
0.0136616
0.0136835
0.0136427
0.0136264
0.0136507
0.013623
0.013456
0.0132287
0.0129618
0.0123624
0.0114787
0.0100594
0.0396263
0.145715
0.108626
0.0804607
0.0658579
0.0572227
0.0505183
0.0444111
0.0378037
0.0297638
0.0167949
0.0170562
0.0300242
0.0379183
0.0444913
0.0505534
0.0572313
0.0658392
0.0804367
0.108559
0.145614
)
;
    }
    frontAndBack
    {
        type            empty;
    }
}


// ************************************************************************* //
