/*--------------------------------*- C++ -*----------------------------------*\
| =========                 |                                                 |
| \\      /  F ield         | OpenFOAM: The Open Source CFD Toolbox           |
|  \\    /   O peration     | Version:  4.1                                   |
|   \\  /    A nd           | Web:      www.OpenFOAM.org                      |
|    \\/     M anipulation  |                                                 |
\*---------------------------------------------------------------------------*/
FoamFile
{
    version     2.0;
    format      ascii;
    class       volScalarField;
    location    "4.5";
    object      k;
}
// * * * * * * * * * * * * * * * * * * * * * * * * * * * * * * * * * * * * * //

dimensions      [0 2 -2 0 0 0 0];

internalField   nonuniform List<scalar> 
400
(
0.00393899
0.00566497
0.00674191
0.00722758
0.00755108
0.0077962
0.00800063
0.00817363
0.00832237
0.00845201
0.00856548
0.00867491
0.00877986
0.00889442
0.00903625
0.00916846
0.00932777
0.00954316
0.0102459
0.009384
0.00158206
0.00165592
0.00187061
0.00199664
0.00207348
0.00215922
0.00227773
0.00243573
0.0026219
0.00283871
0.00306231
0.00330237
0.00350655
0.00372644
0.0038378
0.00406822
0.00427874
0.00487288
0.00634402
0.00771503
0.00172858
0.00161724
0.00168095
0.00173171
0.00177393
0.00186137
0.00201442
0.00222216
0.00246433
0.00272204
0.00295983
0.00315741
0.00328905
0.00331878
0.00327098
0.00316698
0.00296985
0.00317843
0.00420393
0.00631581
0.00181603
0.00161553
0.00165011
0.00171852
0.00186659
0.00211376
0.00240784
0.00271569
0.00300054
0.00323256
0.00338284
0.00343266
0.00339462
0.00327242
0.00302742
0.00275527
0.00245624
0.00258671
0.00338038
0.00552636
0.00187461
0.00182063
0.00184027
0.001939
0.00218055
0.00249495
0.00283111
0.00314721
0.00339411
0.00354648
0.00358795
0.00352318
0.00334048
0.00306357
0.00270512
0.00236836
0.00211998
0.0023224
0.00308706
0.005032
0.00190041
0.00200006
0.0019862
0.00210898
0.00242856
0.00278726
0.00311944
0.0033874
0.00356946
0.00363691
0.0035765
0.00338563
0.00308482
0.00270392
0.00229516
0.00196644
0.00182859
0.00205788
0.00287525
0.0046308
0.00192218
0.00223315
0.0021328
0.00218796
0.00253581
0.00290403
0.00321411
0.00341372
0.00349018
0.00346476
0.0032976
0.00301878
0.00265499
0.00224458
0.00185525
0.0016707
0.00163372
0.00199401
0.00286936
0.00424958
0.00193731
0.00245923
0.00219178
0.00218811
0.00245121
0.00273639
0.00292803
0.00301223
0.00302336
0.00288864
0.00266285
0.0023736
0.00206582
0.00179625
0.00166345
0.00161731
0.00168562
0.00210329
0.00292928
0.00381682
0.00193941
0.00263575
0.00196835
0.00179142
0.00180195
0.0019211
0.00197312
0.00198985
0.00195364
0.00186332
0.00177813
0.00169763
0.00165911
0.00164579
0.00167919
0.00178662
0.00202809
0.00245252
0.00292403
0.00325433
0.00193563
0.00277642
0.00186297
0.00149485
0.00137278
0.00133333
0.00132152
0.00132694
0.00135609
0.00139514
0.00145833
0.00153705
0.00164281
0.00177194
0.00194146
0.0021549
0.00240016
0.00259445
0.00266661
0.00222217
0.00193409
0.0027747
0.00186217
0.00149477
0.00137364
0.00133524
0.00132402
0.00133079
0.00135963
0.00139777
0.00145996
0.001537
0.00164173
0.00176903
0.00193732
0.00215122
0.00239862
0.00259971
0.00267647
0.0022452
0.00193631
0.00263236
0.0019604
0.00177953
0.00178759
0.00191225
0.00196829
0.00198803
0.00196215
0.00187185
0.00178894
0.00170334
0.0016617
0.00164628
0.00167193
0.00177675
0.00201199
0.00244097
0.00292339
0.00327331
0.00193365
0.00245218
0.00217794
0.00217251
0.00243292
0.00272062
0.00291695
0.00300528
0.00301957
0.00289328
0.00267152
0.00238479
0.00207665
0.00180096
0.00166458
0.00161693
0.00168226
0.00209676
0.00292423
0.00382455
0.00191775
0.00222545
0.00212034
0.00217413
0.00252113
0.00288941
0.00319995
0.00340119
0.00347912
0.00345799
0.00329478
0.00301996
0.00265988
0.00225214
0.00186136
0.0016743
0.00163568
0.00199175
0.00286496
0.0042547
0.00189596
0.00199277
0.0019758
0.00209682
0.00241601
0.00277444
0.00310612
0.00337386
0.00355683
0.00362649
0.00356938
0.00338225
0.00308537
0.00270773
0.00230144
0.00197362
0.00183507
0.00206175
0.00287349
0.00463296
0.00187029
0.00181403
0.00183184
0.00192987
0.00217148
0.00248516
0.00281982
0.00313465
0.00338144
0.00353484
0.00357838
0.00351625
0.00333693
0.00306344
0.00270759
0.00237255
0.00212303
0.00232224
0.00308381
0.00503251
0.00181205
0.00161027
0.00164425
0.00171226
0.00185961
0.00210559
0.00239787
0.00270401
0.00298784
0.00321978
0.00337101
0.00342279
0.00338629
0.00326665
0.00302472
0.00275494
0.00245602
0.00258578
0.00337808
0.00552532
0.00172457
0.00161235
0.00167587
0.00172667
0.00176903
0.00185614
0.00200713
0.00221238
0.00245201
0.00270796
0.00294466
0.00314261
0.00327491
0.00330712
0.00326073
0.00315942
0.00296408
0.00317297
0.00420058
0.00631455
0.00157924
0.00165244
0.00186672
0.00199295
0.00206908
0.0021543
0.00227147
0.0024278
0.00261178
0.00282663
0.00304793
0.00328665
0.00348932
0.0037089
0.00382115
0.00405325
0.00426569
0.0048633
0.00634002
0.00771184
0.00393884
0.0056672
0.0067437
0.0072284
0.00754992
0.00779337
0.00799581
0.00816788
0.00831503
0.00844447
0.00855672
0.0086665
0.00877083
0.00888596
0.00902784
0.00916018
0.00931995
0.00953579
0.0102398
0.00937964
)
;

boundaryField
{
    movingWall
    {
        type            kqRWallFunction;
        value           nonuniform List<scalar> 
20
(
0.00393884
0.0056672
0.0067437
0.0072284
0.00754992
0.00779337
0.00799581
0.00816788
0.00831503
0.00844447
0.00855672
0.0086665
0.00877083
0.00888596
0.00902784
0.00916018
0.00931995
0.00953579
0.0102398
0.00937964
)
;
    }
    movingWallBottom
    {
        type            kqRWallFunction;
        value           nonuniform List<scalar> 
20
(
0.00393899
0.00566497
0.00674191
0.00722758
0.00755108
0.0077962
0.00800063
0.00817363
0.00832237
0.00845201
0.00856548
0.00867491
0.00877986
0.00889442
0.00903625
0.00916846
0.00932777
0.00954316
0.0102459
0.009384
)
;
    }
    fixedWalls
    {
        type            kqRWallFunction;
        value           nonuniform List<scalar> 
40
(
0.00393899
0.00158206
0.00172858
0.00181603
0.00187461
0.00190041
0.00192218
0.00193731
0.00193941
0.00193563
0.00193409
0.00193631
0.00193365
0.00191775
0.00189596
0.00187029
0.00181205
0.00172457
0.00157924
0.00393884
0.009384
0.00771503
0.00631581
0.00552636
0.005032
0.0046308
0.00424958
0.00381682
0.00325433
0.00222217
0.0022452
0.00327331
0.00382455
0.0042547
0.00463296
0.00503251
0.00552532
0.00631455
0.00771184
0.00937964
)
;
    }
    frontAndBack
    {
        type            empty;
    }
}


// ************************************************************************* //
