/*--------------------------------*- C++ -*----------------------------------*\
| =========                 |                                                 |
| \\      /  F ield         | OpenFOAM: The Open Source CFD Toolbox           |
|  \\    /   O peration     | Version:  4.1                                   |
|   \\  /    A nd           | Web:      www.OpenFOAM.org                      |
|    \\/     M anipulation  |                                                 |
\*---------------------------------------------------------------------------*/
FoamFile
{
    version     2.0;
    format      ascii;
    class       volScalarField;
    location    "4.5";
    object      nut;
}
// * * * * * * * * * * * * * * * * * * * * * * * * * * * * * * * * * * * * * //

dimensions      [0 2 -1 0 0 0 0];

internalField   nonuniform List<scalar> 
400
(
3.52374e-05
4.22583e-05
4.61011e-05
4.77343e-05
4.87918e-05
4.95777e-05
5.02236e-05
5.07636e-05
5.12233e-05
5.16206e-05
5.19658e-05
5.22967e-05
5.2612e-05
5.29541e-05
5.33744e-05
5.37633e-05
5.42282e-05
5.48506e-05
5.68335e-05
5.43893e-05
2.23335e-05
3.05218e-05
3.72942e-05
3.97118e-05
3.96956e-05
3.95363e-05
4.00173e-05
4.10848e-05
4.27607e-05
4.48598e-05
4.72476e-05
4.9528e-05
5.14565e-05
5.28883e-05
5.27759e-05
5.1062e-05
4.78243e-05
4.53715e-05
4.91748e-05
4.93156e-05
2.33463e-05
4.00161e-05
6.12897e-05
7.51905e-05
8.03503e-05
8.51475e-05
9.03594e-05
9.47667e-05
9.98275e-05
0.000104447
0.00010808
0.000108947
0.000108081
0.000101603
9.45525e-05
8.12833e-05
6.21243e-05
4.82648e-05
4.3786e-05
4.46187e-05
2.39309e-05
4.60318e-05
7.09386e-05
8.7438e-05
0.00010169
0.000120488
0.000135568
0.000147962
0.000157039
0.000162228
0.000163347
0.000159657
0.00015345
0.000142864
0.000125077
0.000102433
7.4179e-05
5.35151e-05
4.23757e-05
4.17362e-05
2.43165e-05
6.11375e-05
8.85761e-05
0.000102219
0.000118407
0.00013438
0.000150579
0.00016488
0.000174929
0.000180126
0.000180739
0.000177095
0.000167999
0.000153895
0.000133006
0.000107042
7.81885e-05
5.64961e-05
4.39195e-05
3.9825e-05
2.44848e-05
7.35462e-05
8.9821e-05
0.000102055
0.000118064
0.000134813
0.000149698
0.000161618
0.000171007
0.000175537
0.000175324
0.000169357
0.000158269
0.000141899
0.00011926
9.33555e-05
6.83982e-05
4.90593e-05
3.98987e-05
3.82038e-05
2.46272e-05
7.86248e-05
8.8899e-05
9.53866e-05
0.000111462
0.000127034
0.000140561
0.00014952
0.000153075
0.000153079
0.00014837
0.000139015
0.000125014
0.000106114
8.06132e-05
6.66257e-05
5.09377e-05
4.28952e-05
3.82591e-05
3.65968e-05
2.47251e-05
8.51879e-05
8.7767e-05
9.00763e-05
9.91191e-05
0.000107714
0.000113052
0.000115056
0.000114841
0.000108932
0.000100453
8.89905e-05
7.60788e-05
6.24135e-05
5.50835e-05
4.90119e-05
4.04962e-05
3.80153e-05
3.62172e-05
3.46826e-05
2.47391e-05
8.77315e-05
7.10642e-05
6.65102e-05
6.70416e-05
6.85798e-05
6.82484e-05
6.68115e-05
6.35205e-05
5.76669e-05
5.26069e-05
4.76927e-05
4.40865e-05
4.07932e-05
3.81183e-05
3.61964e-05
3.56695e-05
3.65688e-05
3.53323e-05
3.20241e-05
2.47164e-05
9.24284e-05
6.60743e-05
5.44808e-05
4.94323e-05
4.69992e-05
4.41051e-05
4.17897e-05
4.02757e-05
3.88752e-05
3.81357e-05
3.75431e-05
3.737e-05
3.72565e-05
3.75272e-05
3.79722e-05
3.8016e-05
3.60997e-05
3.49435e-05
2.64618e-05
2.47067e-05
9.23761e-05
6.60528e-05
5.44963e-05
4.94992e-05
4.71194e-05
4.42044e-05
4.19608e-05
4.04244e-05
3.89893e-05
3.82202e-05
3.75794e-05
3.739e-05
3.72346e-05
3.74771e-05
3.79432e-05
3.80194e-05
3.61354e-05
3.50071e-05
2.65993e-05
2.47193e-05
8.76893e-05
7.08461e-05
6.61252e-05
6.66445e-05
6.85052e-05
6.83316e-05
6.6911e-05
6.41865e-05
5.82682e-05
5.3324e-05
4.8233e-05
4.45461e-05
4.12488e-05
3.83138e-05
3.63285e-05
3.55864e-05
3.6536e-05
3.52911e-05
3.21178e-05
2.47017e-05
8.49461e-05
8.71832e-05
8.94901e-05
9.85799e-05
0.000107404
0.000113089
0.000115369
0.000115357
0.000109897
0.000101633
9.02918e-05
7.73489e-05
6.32991e-05
5.57222e-05
4.96005e-05
4.08226e-05
3.81366e-05
3.62592e-05
3.4718e-05
2.45987e-05
7.83175e-05
8.8329e-05
9.48064e-05
0.000111019
0.000126651
0.000140315
0.000149513
0.000153239
0.000153606
0.000149172
0.000140063
0.000126264
0.000107462
8.16457e-05
6.73147e-05
5.1388e-05
4.30559e-05
3.82834e-05
3.66189e-05
2.4456e-05
7.32169e-05
8.92224e-05
0.000101306
0.000117338
0.000134149
0.000149165
0.00016125
0.000170829
0.00017559
0.000175637
0.000169882
0.000158986
0.000142725
0.000120184
9.425e-05
6.90782e-05
4.94198e-05
3.99776e-05
3.82128e-05
2.42883e-05
6.08723e-05
8.80177e-05
0.000101492
0.000117665
0.000133633
0.000149865
0.000164257
0.000174466
0.000179844
0.000180641
0.000177168
0.000168234
0.000154283
0.00013346
0.000107481
7.84674e-05
5.65952e-05
4.39397e-05
3.98271e-05
2.39045e-05
4.58629e-05
7.05984e-05
8.68952e-05
0.000101032
0.000119744
0.000134817
0.000147283
0.00015648
0.000161802
0.000163071
0.000159526
0.000153356
0.000142891
0.000125184
0.000102598
7.42635e-05
5.35411e-05
4.23401e-05
4.17324e-05
2.33191e-05
3.98912e-05
6.10284e-05
7.48136e-05
7.99796e-05
8.47939e-05
8.99589e-05
9.43408e-05
9.93936e-05
0.000104025
0.000107698
0.000108628
0.000107815
0.000101428
9.43819e-05
8.1141e-05
6.20259e-05
4.81713e-05
4.37457e-05
4.46142e-05
2.23134e-05
3.0451e-05
3.71809e-05
3.96017e-05
3.95875e-05
3.94395e-05
3.9915e-05
4.09616e-05
4.26134e-05
4.46816e-05
4.70427e-05
4.93035e-05
5.12103e-05
5.26518e-05
5.25349e-05
5.08373e-05
4.7646e-05
4.52595e-05
4.91434e-05
4.93053e-05
3.52368e-05
4.22667e-05
4.61073e-05
4.77371e-05
4.8788e-05
4.95687e-05
5.02083e-05
5.07456e-05
5.12005e-05
5.15974e-05
5.1939e-05
5.22711e-05
5.25847e-05
5.29287e-05
5.33494e-05
5.37388e-05
5.42054e-05
5.48293e-05
5.68164e-05
5.43766e-05
)
;

boundaryField
{
    movingWall
    {
        type            nutkWallFunction;
        Cmu             0.09;
        kappa           0.41;
        E               9.8;
        value           nonuniform List<scalar> 
20
(
0
0
0
7.63526e-08
2.50925e-07
3.80273e-07
4.86066e-07
5.74781e-07
6.49794e-07
7.15151e-07
7.71361e-07
8.25925e-07
8.77414e-07
9.3382e-07
1.00276e-06
1.0665e-06
1.14276e-06
1.24458e-06
1.56776e-06
1.17105e-06
)
;
    }
    movingWallBottom
    {
        type            nutkWallFunction;
        Cmu             0.09;
        kappa           0.41;
        E               9.8;
        value           nonuniform List<scalar> 
20
(
0
0
0
7.58986e-08
2.51545e-07
3.81759e-07
4.88565e-07
5.77724e-07
6.53517e-07
7.18942e-07
7.75728e-07
8.3009e-07
8.81853e-07
9.37951e-07
1.00683e-06
1.07047e-06
1.14647e-06
1.24803e-06
1.57051e-06
1.17311e-06
)
;
    }
    fixedWalls
    {
        type            nutkWallFunction;
        Cmu             0.09;
        kappa           0.41;
        E               9.8;
        value           nonuniform List<scalar> 
40
(
0
0
0
0
0
0
0
0
0
0
0
0
0
0
0
0
0
0
0
0
1.17311e-06
3.38908e-07
0
0
0
0
0
0
0
0
0
0
0
0
0
0
0
0
3.37216e-07
1.17105e-06
)
;
    }
    frontAndBack
    {
        type            empty;
    }
}


// ************************************************************************* //
