/*--------------------------------*- C++ -*----------------------------------*\
| =========                 |                                                 |
| \\      /  F ield         | OpenFOAM: The Open Source CFD Toolbox           |
|  \\    /   O peration     | Version:  4.1                                   |
|   \\  /    A nd           | Web:      www.OpenFOAM.org                      |
|    \\/     M anipulation  |                                                 |
\*---------------------------------------------------------------------------*/
FoamFile
{
    version     2.0;
    format      ascii;
    class       volScalarField;
    location    "4.5";
    object      p;
}
// * * * * * * * * * * * * * * * * * * * * * * * * * * * * * * * * * * * * * //

dimensions      [0 2 -2 0 0 0 0];

internalField   nonuniform List<scalar> 
400
(
-1.76013e-07
0.0002852
-0.00414722
-0.00847431
-0.0122357
-0.0154197
-0.0180432
-0.0201185
-0.0216854
-0.0228057
-0.023539
-0.0239048
-0.0238612
-0.0232906
-0.0219681
-0.0194532
-0.0143353
-0.00549597
0.00812231
0.0290817
-0.00615159
-0.0057964
-0.00796285
-0.0109528
-0.014101
-0.0169585
-0.0193388
-0.0212069
-0.02261
-0.0236175
-0.0242958
-0.0246649
-0.0247059
-0.0243065
-0.0232287
-0.0210925
-0.0175618
-0.0115946
-0.00300307
0.0161984
-0.00730092
-0.00793671
-0.0100091
-0.0127664
-0.0156063
-0.018121
-0.020163
-0.0217431
-0.0229354
-0.0238048
-0.0244009
-0.0247252
-0.0247776
-0.0244695
-0.0237591
-0.0222578
-0.0199353
-0.016016
-0.0118871
-0.000671633
-0.00897849
-0.0100774
-0.0121778
-0.0148303
-0.0173903
-0.0195657
-0.0212828
-0.022586
-0.0235558
-0.0242566
-0.0247325
-0.0249994
-0.0250525
-0.024815
-0.0242524
-0.0231548
-0.0216033
-0.0186655
-0.0170721
-0.0105067
-0.00960596
-0.0111095
-0.0132945
-0.0159102
-0.0183412
-0.0203635
-0.021929
-0.0230879
-0.0239237
-0.0245102
-0.0248977
-0.0251077
-0.025138
-0.0249346
-0.0244489
-0.0235634
-0.0224206
-0.0197229
-0.0186801
-0.0135753
-0.0088145
-0.0107774
-0.0131843
-0.0159549
-0.0184712
-0.0205342
-0.0221121
-0.0232589
-0.0240602
-0.0245961
-0.0249274
-0.0250815
-0.0250539
-0.0248013
-0.0242638
-0.0233627
-0.0220597
-0.0194163
-0.0171301
-0.012135
-0.00666874
-0.00896634
-0.0117457
-0.0148494
-0.0176886
-0.020011
-0.0217721
-0.0230327
-0.023892
-0.024435
-0.0247316
-0.0248201
-0.0246871
-0.0243016
-0.0236056
-0.0224475
-0.0204994
-0.0171857
-0.0131063
-0.00776945
-0.00344509
-0.00608632
-0.00927497
-0.0128268
-0.0161364
-0.0188668
-0.0209414
-0.0224129
-0.0233912
-0.0239733
-0.0242404
-0.0242364
-0.02396
-0.0233802
-0.0223756
-0.0206252
-0.0175901
-0.0128504
-0.00682244
-0.00127653
-8.28546e-05
-0.00288177
-0.00637065
-0.010317
-0.0140875
-0.0172749
-0.0197401
-0.0214942
-0.0226462
-0.0233087
-0.0235696
-0.0234795
-0.0230584
-0.022222
-0.0207062
-0.0180131
-0.0135281
-0.00695776
0.0011712
0.00584754
0.00213854
-0.000735152
-0.00437885
-0.0085807
-0.0126355
-0.0160603
-0.0187408
-0.0206915
-0.0219992
-0.0227549
-0.0230312
-0.0228771
-0.0223187
-0.0212144
-0.0191899
-0.0156001
-0.00981769
-0.00182125
0.00686622
0.0111249
0.00213566
-0.0007319
-0.00437265
-0.0085764
-0.0126373
-0.0160674
-0.0187527
-0.0207078
-0.0220187
-0.0227767
-0.023055
-0.0229033
-0.0223463
-0.0212446
-0.0192254
-0.0156454
-0.00987803
-0.0019005
0.00677221
0.0110345
-7.24112e-05
-0.00286176
-0.00634674
-0.0102993
-0.0140828
-0.017285
-0.0197666
-0.0215357
-0.0226999
-0.0233708
-0.0236375
-0.0235505
-0.0231277
-0.0222911
-0.0207798
-0.0181004
-0.0136412
-0.0071102
0.000968746
0.00565398
-0.0034196
-0.00605093
-0.0092381
-0.0128003
-0.0161285
-0.0188808
-0.0209764
-0.0224652
-0.0234577
-0.0240496
-0.024322
-0.0243196
-0.0240425
-0.0234595
-0.0224526
-0.0207074
-0.0176915
-0.0129859
-0.00701075
-0.00147909
-0.00663138
-0.0089215
-0.0117027
-0.0148202
-0.0176812
-0.0200272
-0.0218102
-0.0230888
-0.0239615
-0.0245135
-0.0248147
-0.0249038
-0.0247686
-0.0243786
-0.0236771
-0.022517
-0.0205775
-0.0172815
-0.0132424
-0.00793219
-0.00876971
-0.0107271
-0.0131381
-0.0159236
-0.018462
-0.0205488
-0.0221486
-0.0233134
-0.0241279
-0.0246723
-0.0250078
-0.0251621
-0.0251317
-0.024874
-0.0243295
-0.0234213
-0.0221169
-0.0194733
-0.017218
-0.0122428
-0.00955782
-0.0110572
-0.0132461
-0.0158749
-0.0183266
-0.0203721
-0.0219594
-0.0231365
-0.0239858
-0.024581
-0.0249728
-0.0251829
-0.0252103
-0.0250008
-0.0245069
-0.023612
-0.0224585
-0.0197533
-0.0187308
-0.0136271
-0.00893128
-0.0100258
-0.0121269
-0.0147895
-0.017368
-0.0195655
-0.0213042
-0.0226257
-0.0236095
-0.0243196
-0.0248005
-0.0250682
-0.0251185
-0.0248738
-0.0243013
-0.0231907
-0.0216246
-0.0186773
-0.0170817
-0.0105176
-0.00725875
-0.00788846
-0.009958
-0.0127214
-0.0155759
-0.0181104
-0.0201733
-0.021772
-0.022979
-0.0238584
-0.0244602
-0.0247856
-0.0248353
-0.0245213
-0.0237996
-0.0222827
-0.0199431
-0.0160096
-0.0118672
-0.000650184
-0.00611761
-0.00575539
-0.00791308
-0.0109036
-0.0140622
-0.0169368
-0.0193371
-0.0212246
-0.0226442
-0.0236637
-0.0243492
-0.0247204
-0.0247585
-0.0243505
-0.0232604
-0.0211081
-0.0175571
-0.0115707
-0.0029611
0.016242
2.66559e-05
0.000317462
-0.00410332
-0.00842803
-0.0121973
-0.0153967
-0.0180396
-0.0201344
-0.0217177
-0.02285
-0.0235896
-0.023957
-0.0239101
-0.0233342
-0.0220014
-0.0194663
-0.0143209
-0.00545932
0.00817406
0.0291371
)
;

boundaryField
{
    movingWall
    {
        type            zeroGradient;
    }
    movingWallBottom
    {
        type            zeroGradient;
    }
    fixedWalls
    {
        type            zeroGradient;
    }
    frontAndBack
    {
        type            empty;
    }
}


// ************************************************************************* //
