/*--------------------------------*- C++ -*----------------------------------*\
| =========                 |                                                 |
| \\      /  F ield         | OpenFOAM: The Open Source CFD Toolbox           |
|  \\    /   O peration     | Version:  4.1                                   |
|   \\  /    A nd           | Web:      www.OpenFOAM.org                      |
|    \\/     M anipulation  |                                                 |
\*---------------------------------------------------------------------------*/
FoamFile
{
    version     2.0;
    format      ascii;
    class       surfaceScalarField;
    location    "4.5";
    object      phi;
}
// * * * * * * * * * * * * * * * * * * * * * * * * * * * * * * * * * * * * * //

dimensions      [0 3 -1 0 0 0 0];

internalField   nonuniform List<scalar> 
760
(
3.29444e-06
-3.29443e-06
5.60823e-06
-2.31379e-06
7.41404e-06
-1.80581e-06
8.92102e-06
-1.50699e-06
1.01656e-05
-1.24456e-06
1.11728e-05
-1.00719e-06
1.19831e-05
-8.10324e-07
1.26378e-05
-6.54683e-07
1.31749e-05
-5.37095e-07
1.36157e-05
-4.40791e-07
1.3978e-05
-3.62363e-07
1.42582e-05
-2.80202e-07
1.44624e-05
-2.04189e-07
1.45477e-05
-8.52344e-08
1.45206e-05
2.70406e-08
1.41294e-05
3.91221e-07
1.33558e-05
7.73594e-07
1.1379e-05
1.9768e-06
7.80456e-06
3.57444e-06
7.80456e-06
1.14948e-06
-4.4439e-06
2.76968e-06
-3.93399e-06
4.25677e-06
-3.29289e-06
5.42046e-06
-2.67068e-06
6.28365e-06
-2.10775e-06
6.91244e-06
-1.63598e-06
7.36344e-06
-1.26132e-06
7.67967e-06
-9.70915e-07
7.89596e-06
-7.53381e-07
8.03742e-06
-5.8225e-07
8.12351e-06
-4.48455e-07
8.16053e-06
-3.17222e-07
8.14361e-06
-1.87272e-07
8.02234e-06
3.60407e-08
7.80651e-06
2.42871e-07
7.43064e-06
7.67092e-07
6.73702e-06
1.46721e-06
5.50677e-06
3.20704e-06
3.01339e-06
6.06782e-06
1.0818e-05
1.052e-06
-5.4959e-06
2.31074e-06
-5.19274e-06
3.35391e-06
-4.33605e-06
4.11892e-06
-3.43569e-06
4.64414e-06
-2.63297e-06
4.9821e-06
-1.97394e-06
5.17632e-06
-1.45554e-06
5.26686e-06
-1.06145e-06
5.28263e-06
-7.6915e-07
5.24926e-06
-5.48879e-07
5.17506e-06
-3.7426e-07
5.07131e-06
-2.13467e-07
4.92958e-06
-4.55438e-08
4.75534e-06
2.10279e-07
4.44834e-06
5.49872e-07
4.0451e-06
1.17033e-06
3.35514e-06
2.15718e-06
2.5004e-06
4.06178e-06
1.14022e-06
7.42799e-06
1.19582e-05
7.80868e-07
-6.27677e-06
1.50193e-06
-5.9138e-06
2.11815e-06
-4.95228e-06
2.5802e-06
-3.89774e-06
2.8906e-06
-2.94337e-06
3.07427e-06
-2.15761e-06
3.16502e-06
-1.54629e-06
3.19155e-06
-1.08798e-06
3.17308e-06
-7.50679e-07
3.12325e-06
-4.99048e-07
3.04724e-06
-2.98251e-07
2.94553e-06
-1.11753e-07
2.80437e-06
9.56175e-08
2.63038e-06
3.84267e-07
2.38448e-06
7.95765e-07
2.07724e-06
1.47757e-06
1.59929e-06
2.63514e-06
1.06453e-06
4.59654e-06
4.30605e-07
8.06192e-06
1.23888e-05
3.84931e-07
-6.6617e-06
6.0411e-07
-6.13298e-06
8.11661e-07
-5.15983e-06
9.77807e-07
-4.06389e-06
1.08838e-06
-3.05395e-06
1.15048e-06
-2.2197e-06
1.17658e-06
-1.57239e-06
1.17722e-06
-1.08863e-06
1.15938e-06
-7.32835e-07
1.12726e-06
-4.66926e-07
1.08101e-06
-2.52008e-07
1.01992e-06
-5.06571e-08
9.34435e-07
1.811e-07
8.2564e-07
4.93061e-07
6.79983e-07
9.41423e-07
4.96736e-07
1.66082e-06
3.26774e-07
2.8051e-06
-8.75151e-08
5.01083e-06
-1.73455e-07
8.14786e-06
1.22153e-05
-2.266e-07
-6.4351e-06
-4.29851e-07
-5.92973e-06
-5.82939e-07
-5.00674e-06
-6.92786e-07
-3.95404e-06
-7.78162e-07
-2.96857e-06
-8.41738e-07
-2.15613e-06
-8.85404e-07
-1.52872e-06
-9.12789e-07
-1.06124e-06
-9.28812e-07
-7.16812e-07
-9.3767e-07
-4.58068e-07
-9.44905e-07
-2.44773e-07
-9.55236e-07
-4.03258e-08
-9.73144e-07
1.99008e-07
-9.9638e-07
5.16296e-07
-1.02485e-06
9.69893e-07
-1.0466e-06
1.68257e-06
-1.0598e-06
2.8183e-06
-9.90928e-07
4.94195e-06
-8.76829e-07
8.03376e-06
1.13385e-05
-7.654e-07
-5.6697e-06
-1.4989e-06
-5.19623e-06
-2.05067e-06
-4.45497e-06
-2.46579e-06
-3.53892e-06
-2.75913e-06
-2.67524e-06
-2.9585e-06
-1.95675e-06
-3.08689e-06
-1.40034e-06
-3.16186e-06
-9.86272e-07
-3.19853e-06
-6.80149e-07
-3.20709e-06
-4.49498e-07
-3.1968e-06
-2.55068e-07
-3.17976e-06
-5.73711e-08
-3.15034e-06
1.69597e-07
-3.10378e-06
4.69727e-07
-3.0362e-06
9.02321e-07
-2.92894e-06
1.57531e-06
-2.77965e-06
2.669e-06
-2.41006e-06
4.57237e-06
-1.77172e-06
7.39542e-06
9.56678e-06
-1.39401e-06
-4.27569e-06
-2.65093e-06
-3.93932e-06
-3.65446e-06
-3.45143e-06
-4.41376e-06
-2.77962e-06
-4.9584e-06
-2.1306e-06
-5.33555e-06
-1.5796e-06
-5.59151e-06
-1.14438e-06
-5.76221e-06
-8.15573e-07
-5.87336e-06
-5.68998e-07
-5.94319e-06
-3.79664e-07
-5.98467e-06
-2.13589e-07
-6.01016e-06
-3.18858e-08
-6.00333e-06
1.62766e-07
-5.94679e-06
4.13186e-07
-5.81332e-06
7.68854e-07
-5.55652e-06
1.31851e-06
-5.11123e-06
2.22371e-06
-4.23648e-06
3.69762e-06
-2.52889e-06
5.68783e-06
7.03789e-06
-1.95752e-06
-2.31817e-06
-3.76241e-06
-2.13442e-06
-5.31253e-06
-1.90132e-06
-6.54507e-06
-1.54707e-06
-7.4705e-06
-1.20517e-06
-8.13774e-06
-9.1236e-07
-8.60779e-06
-6.74333e-07
-8.94045e-06
-4.82914e-07
-9.1773e-06
-3.32149e-07
-9.34356e-06
-2.134e-07
-9.45054e-06
-1.06612e-07
-9.49161e-06
9.18017e-09
-9.44829e-06
1.19452e-07
-9.29028e-06
2.5518e-07
-8.97309e-06
4.5166e-07
-8.40459e-06
7.50015e-07
-7.43493e-06
1.25405e-06
-5.79824e-06
2.06092e-06
-3.33684e-06
3.22643e-06
3.70105e-06
-2.31822e-06
4.86141e-11
-4.45471e-06
2.07176e-09
-6.36483e-06
8.80275e-09
-7.92864e-06
1.67372e-08
-9.15602e-06
2.22057e-08
-1.00942e-05
2.5834e-08
-1.07941e-05
2.55269e-08
-1.13009e-05
2.39397e-08
-1.16535e-05
2.04087e-08
-1.18832e-05
1.63204e-08
-1.20011e-05
1.12827e-08
-1.19981e-05
6.15849e-09
-1.18801e-05
1.49529e-09
-1.1621e-05
-3.91421e-09
-1.1161e-05
-8.36162e-09
-1.03966e-05
-1.43927e-08
-9.12131e-06
-2.12348e-08
-7.02895e-06
-3.14388e-08
-3.7585e-06
-4.40187e-08
-5.74547e-08
-2.31267e-06
2.31272e-06
-4.44591e-06
2.13531e-06
-6.35351e-06
1.9164e-06
-7.91513e-06
1.57836e-06
-9.13933e-06
1.2464e-06
-1.00723e-05
9.58761e-07
-1.0768e-05
7.21252e-07
-1.12717e-05
5.2763e-07
-1.16222e-05
3.70981e-07
-1.1851e-05
2.45051e-07
-1.19697e-05
1.30021e-07
-1.19643e-05
7.32835e-10
-1.1846e-05
-1.16813e-07
-1.15877e-05
-2.62145e-07
-1.11289e-05
-4.67239e-07
-1.03669e-05
-7.76356e-07
-9.09514e-06
-1.293e-06
-7.00806e-06
-2.11852e-06
-3.74555e-06
-3.30653e-06
-3.80301e-06
-1.95333e-06
4.26606e-06
-3.75649e-06
3.93846e-06
-5.30591e-06
3.46582e-06
-6.53667e-06
2.80912e-06
-7.45896e-06
2.16869e-06
-8.11968e-06
1.61948e-06
-8.58087e-06
1.18244e-06
-8.90239e-06
8.49148e-07
-9.12771e-06
5.96303e-07
-9.28288e-06
4.00223e-07
-9.37997e-06
2.27107e-07
-9.4189e-06
3.96683e-08
-9.37312e-06
-1.62596e-07
-9.2156e-06
-4.19668e-07
-8.90144e-06
-7.81393e-07
-8.33933e-06
-1.33847e-06
-7.37999e-06
-2.25234e-06
-5.75802e-06
-3.74049e-06
-3.31418e-06
-5.75036e-06
-7.11719e-06
-1.39224e-06
5.6583e-06
-2.64935e-06
5.19557e-06
-3.65352e-06
4.46999e-06
-4.41139e-06
3.56699e-06
-4.95169e-06
2.70899e-06
-5.32231e-06
1.9901e-06
-5.57009e-06
1.43022e-06
-5.7318e-06
1.01086e-06
-5.83402e-06
6.98519e-07
-5.89522e-06
4.61425e-07
-5.92893e-06
2.60815e-07
-5.94735e-06
5.80903e-08
-5.93602e-06
-1.73933e-07
-5.87703e-06
-4.78652e-07
-5.74336e-06
-9.1506e-07
-5.48979e-06
-1.59205e-06
-5.05276e-06
-2.68937e-06
-4.19435e-06
-4.5989e-06
-2.50916e-06
-7.43555e-06
-9.62635e-06
-7.64963e-07
6.42326e-06
-1.49887e-06
5.92947e-06
-2.0503e-06
5.02142e-06
-2.46289e-06
3.97959e-06
-2.75189e-06
2.99799e-06
-2.94616e-06
2.18437e-06
-3.06913e-06
1.55319e-06
-3.13881e-06
1.08055e-06
-3.17076e-06
7.3047e-07
-3.17536e-06
4.66026e-07
-3.16187e-06
2.47323e-07
-3.14205e-06
3.82646e-08
-3.11047e-06
-2.05508e-07
-3.06239e-06
-5.26733e-07
-2.99363e-06
-9.83826e-07
-2.88594e-06
-1.69974e-06
-2.7375e-06
-2.83781e-06
-2.37248e-06
-4.96392e-06
-1.75151e-06
-8.05652e-06
-1.13779e-05
-2.26357e-07
6.64962e-06
-4.2934e-07
6.13246e-06
-5.81004e-07
5.17309e-06
-6.87534e-07
4.08612e-06
-7.68732e-07
3.07919e-06
-8.28072e-07
2.24371e-06
-8.67749e-07
1.59287e-06
-8.91685e-07
1.10448e-06
-9.04953e-07
7.43738e-07
-9.11837e-07
4.7291e-07
-9.17859e-07
2.53346e-07
-9.27498e-07
4.79035e-08
-9.45261e-07
-1.87744e-07
-9.68857e-07
-5.03138e-07
-9.98141e-07
-9.54543e-07
-1.0213e-06
-1.67657e-06
-1.03489e-06
-2.82422e-06
-9.70648e-07
-5.02816e-06
-8.64023e-07
-8.16314e-06
-1.22419e-05
3.84625e-07
6.26499e-06
6.05076e-07
5.91201e-06
8.15411e-07
4.96275e-06
9.85691e-07
3.91584e-06
1.10069e-06
2.96419e-06
1.16695e-06
2.17745e-06
1.19662e-06
1.56319e-06
1.20008e-06
1.10103e-06
1.18421e-06
7.59607e-07
1.15324e-06
5.03881e-07
1.10731e-06
2.99272e-07
1.04598e-06
1.0923e-07
9.59518e-07
-1.01282e-07
8.49438e-07
-3.93058e-07
7.02209e-07
-8.07314e-07
5.17539e-07
-1.4919e-06
3.42879e-07
-2.64956e-06
-7.66809e-08
-4.6086e-06
-1.60337e-07
-8.07949e-06
-1.24022e-05
7.79593e-07
5.4854e-06
1.50233e-06
5.18927e-06
2.12204e-06
4.34304e-06
2.58916e-06
3.44872e-06
2.90493e-06
2.64842e-06
3.09343e-06
1.98895e-06
3.1881e-06
1.46853e-06
3.2175e-06
1.07163e-06
3.20083e-06
7.76275e-07
3.15185e-06
5.52865e-07
3.07575e-06
3.75371e-07
2.97321e-06
2.1177e-07
2.83011e-06
4.1822e-08
2.65403e-06
-2.16976e-07
2.40524e-06
-5.58532e-07
2.09442e-06
-1.18108e-06
1.61233e-06
-2.16747e-06
1.07661e-06
-4.07288e-06
4.35396e-07
-7.43827e-06
-1.19668e-05
1.04943e-06
4.43597e-06
2.30859e-06
3.93011e-06
3.35558e-06
3.29605e-06
4.12631e-06
2.67798e-06
4.65768e-06
2.11705e-06
5.00132e-06
1.64531e-06
5.20023e-06
1.26962e-06
5.29433e-06
9.77525e-07
5.31226e-06
7.5834e-07
5.27988e-06
5.85252e-07
5.20533e-06
4.49916e-07
5.10054e-06
3.16565e-07
4.95731e-06
1.85046e-07
4.77973e-06
-3.93905e-08
4.46897e-06
-2.47773e-07
4.06168e-06
-7.7379e-07
3.36732e-06
-1.47311e-06
2.50864e-06
-3.21421e-06
1.14398e-06
-6.07361e-06
-1.08228e-05
1.14488e-06
3.29108e-06
2.76383e-06
2.31116e-06
4.2537e-06
1.80618e-06
5.42208e-06
1.5096e-06
6.29092e-06
1.24822e-06
6.92532e-06
1.01091e-06
7.38108e-06
8.1385e-07
7.70128e-06
6.57326e-07
7.92023e-06
5.39385e-07
8.06357e-06
4.41922e-07
8.15011e-06
3.63376e-07
8.18697e-06
2.79696e-07
8.168e-06
2.0402e-07
8.04502e-06
8.35881e-08
7.82637e-06
-2.91223e-08
7.44582e-06
-3.93237e-07
6.74798e-06
-7.75273e-07
5.51373e-06
-1.97996e-06
3.01685e-06
-3.57673e-06
-7.806e-06
3.29108e-06
5.60224e-06
7.40842e-06
8.91802e-06
1.01662e-05
1.11772e-05
1.1991e-05
1.26483e-05
1.31877e-05
1.36296e-05
1.3993e-05
1.42727e-05
1.44767e-05
1.45603e-05
1.45312e-05
1.4138e-05
1.33627e-05
1.13827e-05
7.806e-06
)
;

boundaryField
{
    movingWall
    {
        type            calculated;
        value           uniform 0;
    }
    movingWallBottom
    {
        type            calculated;
        value           uniform 0;
    }
    fixedWalls
    {
        type            calculated;
        value           uniform 0;
    }
    frontAndBack
    {
        type            empty;
        value           nonuniform 0();
    }
}


// ************************************************************************* //
