/*--------------------------------*- C++ -*----------------------------------*\
| =========                 |                                                 |
| \\      /  F ield         | OpenFOAM: The Open Source CFD Toolbox           |
|  \\    /   O peration     | Version:  4.1                                   |
|   \\  /    A nd           | Web:      www.OpenFOAM.org                      |
|    \\/     M anipulation  |                                                 |
\*---------------------------------------------------------------------------*/
FoamFile
{
    version     2.0;
    format      ascii;
    class       volVectorField;
    location    "4.5";
    object      U;
}
// * * * * * * * * * * * * * * * * * * * * * * * * * * * * * * * * * * * * * //

dimensions      [0 1 -1 0 0 0 0];

internalField   nonuniform List<vector> 
400
(
(0.0653332 -0.0992516 0)
(0.0795909 -0.0649948 0)
(0.128167 -0.0449259 0)
(0.164471 -0.0351731 0)
(0.192168 -0.0290379 0)
(0.214629 -0.0243965 0)
(0.232433 -0.0206812 0)
(0.247391 -0.0176645 0)
(0.258887 -0.0151988 0)
(0.268841 -0.0131285 0)
(0.276043 -0.0113144 0)
(0.282593 -0.00964866 0)
(0.286401 -0.0079609 0)
(0.289663 -0.00617035 0)
(0.289232 -0.00390611 0)
(0.285484 -0.000430946 0)
(0.274223 0.00133773 0)
(0.254593 0.0123085 0)
(0.191273 0.0227293 0)
(0.173835 0.117396 0)
(0.0177355 -0.0543229 0)
(0.0346129 -0.045398 0)
(0.0698388 -0.0396564 0)
(0.0963382 -0.0335209 0)
(0.11703 -0.0271665 0)
(0.132574 -0.0212912 0)
(0.143564 -0.0164285 0)
(0.151472 -0.0126218 0)
(0.156426 -0.00988185 0)
(0.160076 -0.00768397 0)
(0.161633 -0.00605571 0)
(0.163139 -0.00416604 0)
(0.162383 -0.00257479 0)
(0.161851 0.00107583 0)
(0.156746 0.00399229 0)
(0.153244 0.0126896 0)
(0.137953 0.0227692 0)
(0.13038 0.0521833 0)
(0.0677103 0.0960262 0)
(0.09146 0.166661 0)
(0.0125733 -0.106907 0)
(0.0324909 -0.0994577 0)
(0.0563523 -0.0843261 0)
(0.0744532 -0.0687973 0)
(0.0878439 -0.0538811 0)
(0.096978 -0.041086 0)
(0.102392 -0.0309296 0)
(0.10512 -0.0231966 0)
(0.10594 -0.0174539 0)
(0.10565 -0.0130917 0)
(0.104334 -0.00963761 0)
(0.102674 -0.00652418 0)
(0.0997141 -0.00326311 0)
(0.0972286 0.0011725 0)
(0.0909318 0.00722303 0)
(0.0867565 0.01902 0)
(0.070792 0.0368202 0)
(0.069868 0.0752222 0)
(0.0141572 0.138951 0)
(0.0508641 0.226088 0)
(0.00785256 -0.12143 0)
(0.0227308 -0.114438 0)
(0.0350013 -0.0950683 0)
(0.0466827 -0.074122 0)
(0.0550349 -0.0559651 0)
(0.0602369 -0.0413718 0)
(0.06296 -0.0299924 0)
(0.0639926 -0.0213876 0)
(0.0639318 -0.015001 0)
(0.0631634 -0.0102096 0)
(0.061828 -0.00640259 0)
(0.0600443 -0.00289727 0)
(0.0574803 0.000935676 0)
(0.0545484 0.00629108 0)
(0.0497692 0.0138271 0)
(0.0459811 0.0267422 0)
(0.0332564 0.04853 0)
(0.0383171 0.0886326 0)
(-0.00632596 0.159075 0)
(0.033177 0.255034 0)
(0.00309769 -0.132571 0)
(0.0101596 -0.124048 0)
(0.0128656 -0.10412 0)
(0.017495 -0.082041 0)
(0.0206819 -0.0616575 0)
(0.0226593 -0.0448056 0)
(0.0235821 -0.0317889 0)
(0.0237981 -0.0220727 0)
(0.0235509 -0.0149359 0)
(0.0229954 -0.00963635 0)
(0.022168 -0.00541384 0)
(0.0210651 -0.00146664 0)
(0.0195434 0.00296524 0)
(0.0176504 0.00898747 0)
(0.0149151 0.0176597 0)
(0.0128492 0.0317694 0)
(0.00411539 0.0550002 0)
(0.0131532 0.0970511 0)
(-0.0197343 0.167085 0)
(0.0182819 0.256504 0)
(-0.005575 -0.13348 0)
(-0.00594465 -0.122136 0)
(-0.0117093 -0.102888 0)
(-0.0134901 -0.0811432 0)
(-0.0150096 -0.060944 0)
(-0.0162353 -0.0442706 0)
(-0.0171999 -0.0313396 0)
(-0.0178974 -0.0217093 0)
(-0.0183331 -0.0146211 0)
(-0.0186124 -0.00928979 0)
(-0.0188014 -0.00492913 0)
(-0.0190116 -0.000765542 0)
(-0.0193578 0.00395844 0)
(-0.0198074 0.0103308 0)
(-0.0204044 0.0195907 0)
(-0.0208196 0.0340816 0)
(-0.0242635 0.0569855 0)
(-0.0131992 0.0993667 0)
(-0.0333203 0.164306 0)
(0.00902782 0.243499 0)
(-0.0122054 -0.120656 0)
(-0.023067 -0.112322 0)
(-0.0378322 -0.0956798 0)
(-0.0468059 -0.075801 0)
(-0.0530391 -0.0571329 0)
(-0.0575126 -0.0416744 0)
(-0.0605394 -0.0296967 0)
(-0.062524 -0.0207444 0)
(-0.0636126 -0.0141683 0)
(-0.0640566 -0.00923107 0)
(-0.0640768 -0.00509812 0)
(-0.0638565 -0.00103556 0)
(-0.0634788 0.00372293 0)
(-0.0628427 0.0100412 0)
(-0.0621929 0.0186466 0)
(-0.0612507 0.0320351 0)
(-0.059379 0.0544898 0)
(-0.0480785 0.0965005 0)
(-0.0512913 0.158977 0)
(-0.00604275 0.2163 0)
(-0.0210225 -0.0986791 0)
(-0.0412158 -0.0912859 0)
(-0.0659715 -0.0793614 0)
(-0.0833074 -0.0635588 0)
(-0.0950702 -0.0485739 0)
(-0.103672 -0.0358376 0)
(-0.109454 -0.0258318 0)
(-0.113643 -0.0183442 0)
(-0.116356 -0.0127123 0)
(-0.118162 -0.00840072 0)
(-0.11933 -0.00472574 0)
(-0.120073 -0.000955777 0)
(-0.120551 0.00359413 0)
(-0.120497 0.00950153 0)
(-0.119829 0.0181595 0)
(-0.116775 0.0317289 0)
(-0.109083 0.053777 0)
(-0.0917532 0.0906064 0)
(-0.0689664 0.140691 0)
(-0.0188728 0.176002 0)
(-0.0277761 -0.0641856 0)
(-0.0579844 -0.0599779 0)
(-0.0940218 -0.052779 0)
(-0.122342 -0.0422793 0)
(-0.142202 -0.0323033 0)
(-0.157584 -0.0241823 0)
(-0.167843 -0.0177532 0)
(-0.175702 -0.0127025 0)
(-0.181092 -0.0087953 0)
(-0.185313 -0.00572161 0)
(-0.187995 -0.00293017 0)
(-0.189832 9.61249e-05 0)
(-0.19071 0.00379158 0)
(-0.189855 0.00843824 0)
(-0.186445 0.0149786 0)
(-0.178147 0.0251073 0)
(-0.161197 0.0417862 0)
(-0.13126 0.0678786 0)
(-0.0819983 0.101961 0)
(-0.0457304 0.117612 0)
(-0.0325195 -0.0227604 0)
(-0.0681392 -0.0209844 0)
(-0.111467 -0.018869 0)
(-0.14779 -0.0156249 0)
(-0.173122 -0.012526 0)
(-0.194152 -0.00932213 0)
(-0.209492 -0.00661116 0)
(-0.221447 -0.00449343 0)
(-0.229667 -0.00286723 0)
(-0.235677 -0.00159989 0)
(-0.239091 -0.000486504 0)
(-0.240712 0.000557237 0)
(-0.240738 0.00209664 0)
(-0.238496 0.003705 0)
(-0.232639 0.00631001 0)
(-0.219902 0.010171 0)
(-0.196239 0.0167416 0)
(-0.157413 0.0266816 0)
(-0.101498 0.0393977 0)
(-0.0504333 0.0438838 0)
(-0.0324156 0.0227531 0)
(-0.0679929 0.0210503 0)
(-0.111251 0.0192012 0)
(-0.147558 0.0162709 0)
(-0.172853 0.0133688 0)
(-0.19375 0.0103038 0)
(-0.209014 0.00758606 0)
(-0.22089 0.00541096 0)
(-0.229057 0.00365387 0)
(-0.235037 0.00223086 0)
(-0.238434 0.000929534 0)
(-0.240105 -0.000329967 0)
(-0.240013 -0.00205604 0)
(-0.237838 -0.00389931 0)
(-0.231951 -0.00671243 0)
(-0.219292 -0.010854 0)
(-0.195679 -0.0177448 0)
(-0.156976 -0.0281481 0)
(-0.101166 -0.0413932 0)
(-0.0500344 -0.04645 0)
(-0.0276962 0.0640383 0)
(-0.0578599 0.0599808 0)
(-0.093886 0.0530665 0)
(-0.122238 0.0428814 0)
(-0.142012 0.0330995 0)
(-0.157317 0.0250292 0)
(-0.167409 0.0185955 0)
(-0.17507 0.013488 0)
(-0.180214 0.00946151 0)
(-0.184207 0.00624978 0)
(-0.186677 0.00330866 0)
(-0.188358 0.000121235 0)
(-0.189204 -0.00372919 0)
(-0.188308 -0.00855417 0)
(-0.184947 -0.0152501 0)
(-0.176737 -0.0255579 0)
(-0.159982 -0.0424517 0)
(-0.130305 -0.0688714 0)
(-0.0815433 -0.103372 0)
(-0.0450657 -0.119303 0)
(-0.0209745 0.0984669 0)
(-0.0411594 0.0912582 0)
(-0.0659503 0.0796371 0)
(-0.0833167 0.0641124 0)
(-0.0949987 0.049267 0)
(-0.103498 0.0365527 0)
(-0.109113 0.0264952 0)
(-0.113124 0.0189073 0)
(-0.115664 0.0131564 0)
(-0.117283 0.00871518 0)
(-0.118286 0.00490538 0)
(-0.118878 0.00102349 0)
(-0.119234 -0.00362411 0)
(-0.11909 -0.00961178 0)
(-0.11838 -0.0183339 0)
(-0.115358 -0.0319931 0)
(-0.1078 -0.0541421 0)
(-0.0906927 -0.0911865 0)
(-0.0685532 -0.14164 0)
(-0.0184953 -0.177383 0)
(-0.012182 0.120419 0)
(-0.0230498 0.112304 0)
(-0.0378385 0.0959732 0)
(-0.0468075 0.0763324 0)
(-0.0529524 0.0577576 0)
(-0.0573271 0.0422811 0)
(-0.06024 0.0302299 0)
(-0.0621144 0.0211723 0)
(-0.0631002 0.0144775 0)
(-0.0634585 0.00941938 0)
(-0.0634047 0.00517059 0)
(-0.0631259 0.00100736 0)
(-0.0626982 -0.00384415 0)
(-0.0620193 -0.0102524 0)
(-0.06133 -0.018938 0)
(-0.0603581 -0.0323775 0)
(-0.0585307 -0.054842 0)
(-0.0472091 -0.0968453 0)
(-0.0508031 -0.159398 0)
(-0.00580014 -0.217173 0)
(-0.00556129 0.133234 0)
(-0.00593553 0.12213 0)
(-0.0116939 0.103161 0)
(-0.0134375 0.0816154 0)
(-0.0148732 0.0614854 0)
(-0.0160095 0.0447893 0)
(-0.0168861 0.0317854 0)
(-0.0175074 0.0220569 0)
(-0.0178783 0.0148619 0)
(-0.0181115 0.00942422 0)
(-0.0182679 0.00496305 0)
(-0.0184597 0.000709492 0)
(-0.0187976 -0.00409481 0)
(-0.0192489 -0.0105393 0)
(-0.0198527 -0.0198655 0)
(-0.0202715 -0.0344337 0)
(-0.0237755 -0.0574248 0)
(-0.0126922 -0.0998201 0)
(-0.0330052 -0.164746 0)
(0.00914973 -0.244144 0)
(0.00309926 0.132329 0)
(0.0101641 0.124031 0)
(0.0129022 0.104373 0)
(0.0175962 0.0824616 0)
(0.0208734 0.062134 0)
(0.0229431 0.0452551 0)
(0.0239488 0.0321687 0)
(0.0242311 0.0223644 0)
(0.0240329 0.0151349 0)
(0.0235083 0.00974365 0)
(0.0226951 0.00543547 0)
(0.0215933 0.00141065 0)
(0.0200574 -0.00309052 0)
(0.0181436 -0.00917888 0)
(0.0153764 -0.0179101 0)
(0.0132775 -0.0320693 0)
(0.00448105 -0.05532 0)
(0.0135414 -0.0973198 0)
(-0.0195096 -0.167355 0)
(0.0183825 -0.256899 0)
(0.00785199 0.121201 0)
(0.0227285 0.114387 0)
(0.0350328 0.095253 0)
(0.0467935 0.0744443 0)
(0.0552549 0.0563315 0)
(0.0605676 0.0417208 0)
(0.0633846 0.030292 0)
(0.0644883 0.0216215 0)
(0.0644745 0.0151629 0)
(0.0637327 0.0102982 0)
(0.0624031 0.00642235 0)
(0.0606116 0.00285033 0)
(0.0580167 -0.00104109 0)
(0.0550491 -0.00644584 0)
(0.0502122 -0.0140303 0)
(0.0463746 -0.0269963 0)
(0.0335636 -0.0487872 0)
(0.0385588 -0.0888971 0)
(-0.0061417 -0.159394 0)
(0.0332338 -0.255234 0)
(0.0125414 0.106712 0)
(0.0324416 0.0993825 0)
(0.0563325 0.0844317 0)
(0.0745312 0.0690098 0)
(0.0880379 0.0541509 0)
(0.0972961 0.0413546 0)
(0.102822 0.0311647 0)
(0.105639 0.0233829 0)
(0.106516 0.0175891 0)
(0.106261 0.0131739 0)
(0.104946 0.00967253 0)
(0.103276 0.00650985 0)
(0.100282 0.00320565 0)
(0.0977582 -0.00127748 0)
(0.0913794 -0.00736591 0)
(0.0871495 -0.0191945 0)
(0.071073 -0.0369853 0)
(0.0700785 -0.0753988 0)
(0.0142678 -0.139078 0)
(0.050928 -0.226219 0)
(0.0176637 0.054198 0)
(0.0345007 0.0453087 0)
(0.0697464 0.0396781 0)
(0.0963102 0.033617 0)
(0.117101 0.0272926 0)
(0.132762 0.0214214 0)
(0.143855 0.0165449 0)
(0.151866 0.0127122 0)
(0.156881 0.0099496 0)
(0.160594 0.00772217 0)
(0.162156 0.00607575 0)
(0.163682 0.00415239 0)
(0.162888 0.0025491 0)
(0.162326 -0.0011354 0)
(0.157165 -0.00404458 0)
(0.153605 -0.0127683 0)
(0.138207 -0.022834 0)
(0.130563 -0.0522682 0)
(0.0678134 -0.0961103 0)
(0.0915071 -0.166719 0)
(0.0652765 0.0992312 0)
(0.0795103 0.0649644 0)
(0.128047 0.0449077 0)
(0.164375 0.0351727 0)
(0.192119 0.0290521 0)
(0.214663 0.0244106 0)
(0.232531 0.0207032 0)
(0.247573 0.0176771 0)
(0.25911 0.0152227 0)
(0.26912 0.0131351 0)
(0.276329 0.0113387 0)
(0.282904 0.00964226 0)
(0.286696 0.0079815 0)
(0.289963 0.00614414 0)
(0.289492 0.00390719 0)
(0.285704 0.00043244 0)
(0.27438 -0.00132187 0)
(0.254702 -0.0123227 0)
(0.191315 -0.0227291 0)
(0.173853 -0.117388 0)
)
;

boundaryField
{
    movingWall
    {
        type            fixedValue;
        value           uniform (1 0 0);
    }
    movingWallBottom
    {
        type            fixedValue;
        value           uniform (1 0 0);
    }
    fixedWalls
    {
        type            noSlip;
    }
    frontAndBack
    {
        type            empty;
    }
}


// ************************************************************************* //
