/*--------------------------------*- C++ -*----------------------------------*\
| =========                 |                                                 |
| \\      /  F ield         | OpenFOAM: The Open Source CFD Toolbox           |
|  \\    /   O peration     | Version:  4.1                                   |
|   \\  /    A nd           | Web:      www.OpenFOAM.org                      |
|    \\/     M anipulation  |                                                 |
\*---------------------------------------------------------------------------*/
FoamFile
{
    version     2.0;
    format      ascii;
    class       volScalarField;
    location    "3";
    object      epsilon;
}
// * * * * * * * * * * * * * * * * * * * * * * * * * * * * * * * * * * * * * //

dimensions      [0 2 -3 0 0 0 0];

internalField   nonuniform List<scalar> 
400
(
0.0386216
0.0682968
0.0889322
0.0987106
0.105463
0.110751
0.115362
0.11933
0.122818
0.125783
0.128392
0.130721
0.133016
0.135344
0.138574
0.141633
0.145191
0.150047
0.16654
0.146109
0.00853357
0.00675321
0.00706452
0.00749958
0.00803242
0.00870781
0.00950491
0.0104752
0.0115578
0.0127948
0.0140376
0.0154978
0.016755
0.0185156
0.0196558
0.0231872
0.0288673
0.0425593
0.071863
0.108608
0.00923697
0.00442563
0.00291196
0.00238113
0.00222211
0.00225893
0.00240806
0.00273297
0.00317924
0.00372643
0.00429757
0.00492433
0.00545556
0.00600826
0.0063193
0.0070103
0.00864725
0.0147471
0.0339637
0.0800331
0.0098138
0.00370925
0.0022835
0.00190036
0.00182988
0.00191204
0.00213253
0.00248104
0.00287237
0.00326108
0.00356987
0.00378225
0.00384126
0.00383734
0.00372184
0.00375423
0.00434695
0.00804688
0.0221137
0.0656417
0.0100275
0.00345614
0.00222886
0.00201062
0.00212354
0.0023959
0.00271712
0.00304525
0.00332738
0.00352056
0.00356768
0.00348887
0.00325801
0.00294011
0.00257815
0.00241277
0.0028025
0.00581578
0.0176542
0.0569179
0.0100427
0.00342439
0.00255951
0.00244796
0.00270752
0.00306684
0.00339512
0.00365522
0.00379151
0.00379205
0.0036038
0.00326342
0.00280389
0.0023039
0.00192083
0.00183428
0.00250744
0.00573394
0.0173662
0.0501808
0.00995819
0.00405385
0.00303686
0.00291869
0.00324923
0.00370508
0.00403495
0.00420792
0.00425233
0.00409172
0.00373439
0.0032516
0.00271166
0.00224637
0.00204488
0.00208417
0.00302938
0.00658058
0.0182748
0.0440263
0.00995695
0.0046626
0.00339246
0.00314976
0.00349501
0.00399653
0.00431863
0.00446951
0.00449807
0.00427904
0.00394352
0.00355139
0.00321931
0.00306233
0.00303194
0.00344149
0.00496896
0.009186
0.0206355
0.0374363
0.00988427
0.00530355
0.00354505
0.00307045
0.00303891
0.003349
0.00361971
0.00385664
0.00403629
0.00417037
0.00430873
0.00448817
0.00476159
0.00520823
0.00592566
0.00724434
0.00968091
0.0141707
0.021514
0.0295314
0.00962327
0.00563156
0.00360382
0.00289387
0.00273678
0.00276849
0.00300668
0.00327293
0.00363749
0.00406835
0.00460396
0.00526581
0.00610103
0.00719053
0.00863357
0.0106102
0.0132743
0.016518
0.0181103
0.0165926
0.00960609
0.00563737
0.00360246
0.00288913
0.00273048
0.0027607
0.00300104
0.00326746
0.00363359
0.00406459
0.00460024
0.00526131
0.00609493
0.0071811
0.00862216
0.0105967
0.0132653
0.0165392
0.0181533
0.0167044
0.00985987
0.00531304
0.00353869
0.00305142
0.00301455
0.00331519
0.00359129
0.00382964
0.00401544
0.00415294
0.00428963
0.00446623
0.00473093
0.00516942
0.00587792
0.00718522
0.00961479
0.0141147
0.0215234
0.0296442
0.00993303
0.00467074
0.00338752
0.00313928
0.00347416
0.00397185
0.00429335
0.00444455
0.00447462
0.00425902
0.00392547
0.00353365
0.00319815
0.00303882
0.00300641
0.00340966
0.00492664
0.00912678
0.0205854
0.0374865
0.00993214
0.00406345
0.00303742
0.00291525
0.00324065
0.0036961
0.00402484
0.00419532
0.00423828
0.00407527
0.00371759
0.00323668
0.00269939
0.00223581
0.00203431
0.00207179
0.00301152
0.00655062
0.0182398
0.0440658
0.0100136
0.00342942
0.00256598
0.00245453
0.00271537
0.00307568
0.00340061
0.00365515
0.00378732
0.00378478
0.00359571
0.00325633
0.00279873
0.00230109
0.00191818
0.00183033
0.00249893
0.0057145
0.0173354
0.0502001
0.00999959
0.00345821
0.00223284
0.00201929
0.00213432
0.00240826
0.00272658
0.00305
0.00332775
0.00351773
0.00356302
0.00348449
0.00325451
0.00293813
0.0025773
0.00241262
0.00279958
0.00580438
0.017629
0.0569268
0.00978913
0.0037075
0.00228664
0.0019054
0.00183654
0.00191853
0.00213735
0.00248218
0.00286954
0.00325509
0.00356201
0.00377401
0.00383335
0.00383049
0.00371727
0.0037511
0.00434293
0.00803817
0.0221076
0.0656375
0.00921716
0.00441953
0.00291174
0.00238334
0.00222501
0.00226096
0.00240772
0.00272807
0.00316881
0.0037108
0.00427691
0.00490115
0.00543087
0.00598531
0.00629937
0.00699589
0.00863755
0.0147393
0.0339599
0.0800258
0.00852227
0.0067457
0.00705773
0.00749059
0.00801986
0.00869041
0.00948179
0.0104463
0.0115217
0.0127534
0.0139888
0.0154456
0.0166982
0.0184591
0.0196004
0.023148
0.0288362
0.0425374
0.07185
0.108579
0.038614
0.0682927
0.0889258
0.0986819
0.10541
0.110673
0.115263
0.119218
0.122695
0.125657
0.128261
0.130591
0.132891
0.135221
0.138468
0.141529
0.145095
0.149957
0.166466
0.146061
)
;

boundaryField
{
    movingWall
    {
        Cmu             0.09;
        kappa           0.41;
        E               9.8;
        type            epsilonWallFunction;
        value           nonuniform List<scalar> 
20
(
0.038614
0.0682927
0.0889258
0.0986819
0.10541
0.110673
0.115263
0.119218
0.122695
0.125657
0.128261
0.130591
0.132891
0.135221
0.138468
0.141529
0.145095
0.149957
0.166466
0.146061
)
;
    }
    movingWallBottom
    {
        Cmu             0.09;
        kappa           0.41;
        E               9.8;
        type            epsilonWallFunction;
        value           nonuniform List<scalar> 
20
(
0.0386216
0.0682968
0.0889322
0.0987106
0.105463
0.110751
0.115362
0.11933
0.122818
0.125783
0.128392
0.130721
0.133016
0.135344
0.138574
0.141633
0.145191
0.150047
0.16654
0.146109
)
;
    }
    fixedWalls
    {
        Cmu             0.09;
        kappa           0.41;
        E               9.8;
        type            epsilonWallFunction;
        value           nonuniform List<scalar> 
40
(
0.0386216
0.00853357
0.00923697
0.0098138
0.0100275
0.0100427
0.00995819
0.00995695
0.00988427
0.00962327
0.00960609
0.00985987
0.00993303
0.00993214
0.0100136
0.00999959
0.00978913
0.00921716
0.00852227
0.038614
0.146109
0.108608
0.0800331
0.0656417
0.0569179
0.0501808
0.0440263
0.0374363
0.0295314
0.0165926
0.0167044
0.0296442
0.0374865
0.0440658
0.0502001
0.0569268
0.0656375
0.0800258
0.108579
0.146061
)
;
    }
    frontAndBack
    {
        type            empty;
    }
}


// ************************************************************************* //
