/*--------------------------------*- C++ -*----------------------------------*\
| =========                 |                                                 |
| \\      /  F ield         | OpenFOAM: The Open Source CFD Toolbox           |
|  \\    /   O peration     | Version:  4.1                                   |
|   \\  /    A nd           | Web:      www.OpenFOAM.org                      |
|    \\/     M anipulation  |                                                 |
\*---------------------------------------------------------------------------*/
FoamFile
{
    version     2.0;
    format      ascii;
    class       volScalarField;
    location    "3";
    object      k;
}
// * * * * * * * * * * * * * * * * * * * * * * * * * * * * * * * * * * * * * //

dimensions      [0 2 -2 0 0 0 0];

internalField   nonuniform List<scalar> 
400
(
0.00387195
0.00566129
0.00675058
0.00723635
0.00756257
0.00781322
0.00802868
0.00821182
0.0083712
0.00850549
0.0086228
0.00872685
0.00882884
0.00893159
0.00907327
0.0092063
0.00935987
0.00956747
0.0102564
0.0093995
0.00141604
0.00138608
0.00149096
0.00153875
0.00156592
0.00160227
0.00166119
0.00175233
0.00186845
0.00200884
0.00215854
0.00232951
0.00247846
0.0026662
0.00277351
0.00302845
0.00336517
0.0042081
0.00613321
0.00771323
0.00149318
0.00126005
0.00122325
0.00118546
0.00117931
0.00119527
0.00124461
0.00134664
0.00148264
0.00163714
0.0017942
0.00192877
0.00203071
0.00206861
0.00204381
0.00196656
0.00196366
0.00231541
0.0038338
0.00629298
0.00155471
0.00123571
0.00115473
0.00113173
0.00115894
0.00125199
0.00143254
0.00163784
0.00183705
0.00200252
0.00210358
0.00213364
0.00210542
0.00202159
0.00184465
0.00162131
0.00148166
0.0017288
0.0029734
0.00551394
0.00157724
0.00134313
0.00122884
0.00122187
0.00132609
0.00151966
0.00172685
0.00193147
0.00209254
0.00219299
0.0022157
0.00216478
0.00202768
0.00182882
0.00156583
0.00132112
0.00120582
0.00148789
0.00266687
0.00501402
0.00157887
0.00147923
0.00133753
0.00133087
0.00149959
0.00171935
0.00192117
0.00208549
0.00219693
0.0022312
0.00217073
0.00202034
0.00179402
0.00151616
0.00121547
0.00102563
0.000989798
0.00140053
0.00258829
0.00461025
0.00157014
0.00166897
0.00144606
0.00141557
0.00157424
0.00180354
0.00199076
0.00210519
0.00214419
0.00210938
0.00197207
0.00175736
0.00148864
0.00119968
0.00101232
0.00094718
0.00100404
0.001474
0.0026416
0.00422531
0.00157007
0.00186874
0.00149416
0.00144508
0.00157257
0.00173563
0.0018254
0.00185995
0.00184575
0.00173413
0.00158379
0.00140701
0.00123671
0.00111788
0.00106256
0.00104863
0.00122
0.00174795
0.00282319
0.00379253
0.00156248
0.00206937
0.00144203
0.00126133
0.00124231
0.00129679
0.0013467
0.0013694
0.00137513
0.00135688
0.00133477
0.0013243
0.00132213
0.00135646
0.00142785
0.00157864
0.00186846
0.00233644
0.00289279
0.00323805
0.0015349
0.00217032
0.00143676
0.00117568
0.00110037
0.00108566
0.00110281
0.00114899
0.00119709
0.00126564
0.00134068
0.00143739
0.00154881
0.00169172
0.00186425
0.00208512
0.00234589
0.00256119
0.00264506
0.00220503
0.00153307
0.00217066
0.00143607
0.00117407
0.00109829
0.00108349
0.00110131
0.00114775
0.0011963
0.00126504
0.00133998
0.00143664
0.00154776
0.00169018
0.00186251
0.00208315
0.00234473
0.00256317
0.00264916
0.00221495
0.00155991
0.00207014
0.0014391
0.0012552
0.00123419
0.00128578
0.00133795
0.00136242
0.00136935
0.00135471
0.00133181
0.00132106
0.00131843
0.00135027
0.00142101
0.00157005
0.00185933
0.00232946
0.0028938
0.0032463
0.00156754
0.00186884
0.00148734
0.00143464
0.001557
0.00172006
0.00181221
0.00184764
0.0018384
0.00173027
0.00158274
0.00140798
0.00123756
0.00111764
0.00106157
0.00104715
0.00121624
0.00174306
0.00281811
0.00379593
0.00156738
0.00166837
0.00143965
0.00140665
0.00156445
0.00179345
0.00198034
0.0020953
0.00213514
0.00210307
0.00196839
0.0017566
0.00149052
0.00120293
0.00101432
0.00094859
0.00100491
0.0014724
0.00263876
0.00422784
0.00157581
0.00147787
0.00133207
0.00132417
0.00149138
0.00171085
0.001912
0.00207609
0.00218847
0.00222423
0.0021662
0.00201851
0.0017951
0.00151956
0.00122051
0.00102961
0.000992398
0.00140051
0.00258601
0.00461144
0.0015743
0.00134123
0.00122424
0.00121615
0.0013202
0.00151342
0.00171948
0.00192317
0.002084
0.00218526
0.00220981
0.00216091
0.00202646
0.0018302
0.00156902
0.00132532
0.00120914
0.00148946
0.0026654
0.00501455
0.00155209
0.00123314
0.00115043
0.00112683
0.00115382
0.00124613
0.00142523
0.00162936
0.00182802
0.00199372
0.0020958
0.0021278
0.00210083
0.00201905
0.00184467
0.00162297
0.00148263
0.00172873
0.00297249
0.00551372
0.00149103
0.00125741
0.00121884
0.00118061
0.00117438
0.0011901
0.00123868
0.00133926
0.00147385
0.00162732
0.00178386
0.00191906
0.00202172
0.00206202
0.00203828
0.00196338
0.0019615
0.00231358
0.00383329
0.00629259
0.00141479
0.00138375
0.0014874
0.00153441
0.00156135
0.00159736
0.00165582
0.00174629
0.00186152
0.00200116
0.00214991
0.00232053
0.002469
0.00265712
0.00276478
0.00302132
0.00335942
0.00420437
0.00613201
0.00771183
0.00387144
0.00566107
0.00675027
0.00723494
0.00755998
0.00780951
0.00802405
0.00820665
0.00836556
0.00849974
0.00861688
0.00872102
0.00882325
0.00892614
0.0090686
0.00920176
0.00935565
0.00956356
0.0102533
0.00939741
)
;

boundaryField
{
    movingWall
    {
        type            kqRWallFunction;
        value           nonuniform List<scalar> 
20
(
0.00387144
0.00566107
0.00675027
0.00723494
0.00755998
0.00780951
0.00802405
0.00820665
0.00836556
0.00849974
0.00861688
0.00872102
0.00882325
0.00892614
0.0090686
0.00920176
0.00935565
0.00956356
0.0102533
0.00939741
)
;
    }
    movingWallBottom
    {
        type            kqRWallFunction;
        value           nonuniform List<scalar> 
20
(
0.00387195
0.00566129
0.00675058
0.00723635
0.00756257
0.00781322
0.00802868
0.00821182
0.0083712
0.00850549
0.0086228
0.00872685
0.00882884
0.00893159
0.00907327
0.0092063
0.00935987
0.00956747
0.0102564
0.0093995
)
;
    }
    fixedWalls
    {
        type            kqRWallFunction;
        value           nonuniform List<scalar> 
40
(
0.00387195
0.00141604
0.00149318
0.00155471
0.00157724
0.00157887
0.00157014
0.00157007
0.00156248
0.0015349
0.00153307
0.00155991
0.00156754
0.00156738
0.00157581
0.0015743
0.00155209
0.00149103
0.00141479
0.00387144
0.0093995
0.00771323
0.00629298
0.00551394
0.00501402
0.00461025
0.00422531
0.00379253
0.00323805
0.00220503
0.00221495
0.0032463
0.00379593
0.00422784
0.00461144
0.00501455
0.00551372
0.00629259
0.00771183
0.00939741
)
;
    }
    frontAndBack
    {
        type            empty;
    }
}


// ************************************************************************* //
