/*--------------------------------*- C++ -*----------------------------------*\
| =========                 |                                                 |
| \\      /  F ield         | OpenFOAM: The Open Source CFD Toolbox           |
|  \\    /   O peration     | Version:  4.1                                   |
|   \\  /    A nd           | Web:      www.OpenFOAM.org                      |
|    \\/     M anipulation  |                                                 |
\*---------------------------------------------------------------------------*/
FoamFile
{
    version     2.0;
    format      ascii;
    class       volScalarField;
    location    "3";
    object      nut;
}
// * * * * * * * * * * * * * * * * * * * * * * * * * * * * * * * * * * * * * //

dimensions      [0 2 -1 0 0 0 0];

internalField   nonuniform List<scalar> 
400
(
3.49359e-05
4.2235e-05
4.61176e-05
4.77439e-05
4.88068e-05
4.96084e-05
5.02885e-05
5.08594e-05
5.13517e-05
5.17629e-05
5.21196e-05
5.24341e-05
5.27408e-05
5.30471e-05
5.34674e-05
5.38577e-05
5.43051e-05
5.49045e-05
5.68481e-05
5.44221e-05
2.11478e-05
2.56041e-05
2.83198e-05
2.84148e-05
2.74749e-05
2.6534e-05
2.61298e-05
2.63821e-05
2.71851e-05
2.83856e-05
2.98723e-05
3.15138e-05
3.29961e-05
3.45534e-05
3.52218e-05
3.55989e-05
3.53061e-05
3.74472e-05
4.711e-05
4.93005e-05
2.1724e-05
3.2288e-05
4.62473e-05
5.31166e-05
5.63294e-05
5.6921e-05
5.78954e-05
5.97182e-05
6.22284e-05
6.47322e-05
6.7416e-05
6.79915e-05
6.80297e-05
6.40992e-05
5.94913e-05
4.96502e-05
4.01328e-05
3.27182e-05
3.89482e-05
4.45334e-05
2.21668e-05
3.70499e-05
5.25531e-05
6.06582e-05
6.60604e-05
7.37819e-05
8.66079e-05
9.73091e-05
0.000105742
0.000110671
0.00011156
0.000108326
0.000103859
9.58517e-05
8.22831e-05
6.30161e-05
4.54522e-05
3.34277e-05
3.59823e-05
4.16858e-05
2.23277e-05
4.69775e-05
6.09751e-05
6.68281e-05
7.45297e-05
8.67501e-05
9.87734e-05
0.000110254
0.000118437
0.000122943
0.000123844
0.000120888
0.000113577
0.000102382
8.55905e-05
6.51044e-05
4.66937e-05
3.42593e-05
3.62576e-05
3.97526e-05
2.23401e-05
5.75085e-05
6.29065e-05
6.51198e-05
7.47504e-05
8.67523e-05
9.78411e-05
0.000107089
0.000114568
0.000118153
0.000117678
0.000112568
0.000103309
8.97991e-05
6.92212e-05
5.16133e-05
3.51645e-05
3.07874e-05
3.47186e-05
3.81201e-05
2.22812e-05
6.18401e-05
6.1971e-05
6.17896e-05
6.86444e-05
7.90125e-05
8.83978e-05
9.47888e-05
9.73061e-05
9.78695e-05
9.37277e-05
8.54808e-05
7.35507e-05
5.76622e-05
4.51036e-05
3.87414e-05
2.99495e-05
2.9715e-05
3.43656e-05
3.64961e-05
2.22821e-05
6.74083e-05
5.9227e-05
5.96695e-05
6.36818e-05
6.7838e-05
6.94401e-05
6.96603e-05
6.81648e-05
6.32497e-05
5.72469e-05
5.01697e-05
4.27578e-05
3.67263e-05
3.35138e-05
2.8757e-05
2.69586e-05
2.99346e-05
3.47622e-05
3.45786e-05
2.22294e-05
7.26692e-05
5.27922e-05
4.66337e-05
4.5707e-05
4.51922e-05
4.5093e-05
4.37617e-05
4.21648e-05
3.97331e-05
3.72139e-05
3.51677e-05
3.30397e-05
3.17956e-05
3.09649e-05
3.09607e-05
3.24558e-05
3.46703e-05
3.5007e-05
3.1954e-05
2.20333e-05
7.5277e-05
5.15524e-05
4.29877e-05
3.98183e-05
3.83166e-05
3.64049e-05
3.63023e-05
3.54566e-05
3.54361e-05
3.51366e-05
3.53121e-05
3.53865e-05
3.58212e-05
3.62294e-05
3.68791e-05
3.73118e-05
3.5741e-05
3.47686e-05
2.6373e-05
2.20202e-05
7.52226e-05
5.15222e-05
4.29403e-05
3.97589e-05
3.82716e-05
3.63736e-05
3.62849e-05
3.54475e-05
3.54354e-05
3.51282e-05
3.53058e-05
3.53736e-05
3.58029e-05
3.62096e-05
3.68567e-05
3.73003e-05
3.57508e-05
3.47939e-05
2.64326e-05
2.22112e-05
7.25937e-05
5.26723e-05
4.64693e-05
4.54759e-05
4.48818e-05
4.48615e-05
4.36221e-05
4.20278e-05
3.97723e-05
3.72141e-05
3.51677e-05
3.30683e-05
3.17426e-05
3.09181e-05
3.08768e-05
3.23607e-05
3.46007e-05
3.50161e-05
3.1995e-05
2.22636e-05
6.7298e-05
5.87736e-05
5.90065e-05
6.28014e-05
6.70408e-05
6.88438e-05
6.91275e-05
6.79776e-05
6.32644e-05
5.74339e-05
5.04907e-05
4.30998e-05
3.69951e-05
3.37357e-05
2.89435e-05
2.70228e-05
2.99605e-05
3.47215e-05
3.45943e-05
2.22612e-05
6.16498e-05
6.14113e-05
6.1086e-05
6.79727e-05
7.83204e-05
8.76949e-05
9.41822e-05
9.6807e-05
9.76775e-05
9.37999e-05
8.58e-05
7.40719e-05
5.82494e-05
4.55174e-05
3.90888e-05
3.01792e-05
2.97862e-05
3.43576e-05
3.65072e-05
2.23183e-05
5.73187e-05
6.22365e-05
6.42926e-05
7.37212e-05
8.56496e-05
9.67525e-05
0.000106127
0.000113813
0.000117641
0.000117451
0.00011261
0.000103624
9.03113e-05
6.98934e-05
5.21268e-05
3.54699e-05
3.08914e-05
3.47192e-05
3.81251e-05
2.23067e-05
4.68166e-05
6.0411e-05
6.59202e-05
7.34961e-05
8.55967e-05
9.75926e-05
0.000109138
0.000117459
0.000122176
0.000123349
0.000120608
0.000113562
0.000102605
8.59673e-05
6.5523e-05
4.70002e-05
3.43991e-05
3.62694e-05
3.97548e-05
2.21478e-05
3.69137e-05
5.20913e-05
5.99755e-05
6.52403e-05
7.28455e-05
8.55332e-05
9.62598e-05
0.000104807
0.000109903
0.000110981
0.000107969
0.00010362
9.57816e-05
8.23869e-05
6.31979e-05
4.55539e-05
3.34611e-05
3.59701e-05
4.1685e-05
2.1708e-05
3.21975e-05
4.59182e-05
5.26341e-05
5.57868e-05
5.63791e-05
5.73528e-05
5.91719e-05
6.16951e-05
6.42279e-05
6.69631e-05
6.76273e-05
6.77356e-05
6.39357e-05
5.93572e-05
4.95915e-05
4.00894e-05
3.2684e-05
3.89421e-05
4.4532e-05
2.11382e-05
2.55465e-05
2.82121e-05
2.82886e-05
2.73573e-05
2.64246e-05
2.60243e-05
2.62733e-05
2.70682e-05
2.82605e-05
2.97373e-05
3.13771e-05
3.28559e-05
3.44234e-05
3.50995e-05
3.54914e-05
3.52237e-05
3.74002e-05
4.71001e-05
4.9296e-05
3.49336e-05
4.22344e-05
4.61166e-05
4.77391e-05
4.87982e-05
4.95963e-05
5.02736e-05
5.0843e-05
5.13338e-05
5.17449e-05
5.21012e-05
5.24161e-05
5.27236e-05
5.30304e-05
5.34532e-05
5.3844e-05
5.42925e-05
5.48929e-05
5.68392e-05
5.44159e-05
)
;

boundaryField
{
    movingWall
    {
        type            nutkWallFunction;
        Cmu             0.09;
        kappa           0.41;
        E               9.8;
        value           nonuniform List<scalar> 
20
(
0
0
0
7.99445e-08
2.56315e-07
3.88763e-07
5.00702e-07
5.94619e-07
6.75376e-07
7.42881e-07
8.01312e-07
8.52874e-07
9.03147e-07
9.53406e-07
1.02245e-06
1.08642e-06
1.15969e-06
1.25758e-06
1.57386e-06
1.17945e-06
)
;
    }
    movingWallBottom
    {
        type            nutkWallFunction;
        Cmu             0.09;
        kappa           0.41;
        E               9.8;
        value           nonuniform List<scalar> 
20
(
0
0
0
8.07214e-08
2.57704e-07
3.90715e-07
5.03097e-07
5.97259e-07
6.7823e-07
7.45761e-07
8.04254e-07
8.55754e-07
9.05888e-07
9.56063e-07
1.0247e-06
1.08859e-06
1.16169e-06
1.25941e-06
1.57524e-06
1.18044e-06
)
;
    }
    fixedWalls
    {
        type            nutkWallFunction;
        Cmu             0.09;
        kappa           0.41;
        E               9.8;
        value           nonuniform List<scalar> 
40
(
0
0
0
0
0
0
0
0
0
0
0
0
0
0
0
0
0
0
0
0
1.18044e-06
3.37951e-07
0
0
0
0
0
0
0
0
0
0
0
0
0
0
0
0
3.37211e-07
1.17945e-06
)
;
    }
    frontAndBack
    {
        type            empty;
    }
}


// ************************************************************************* //
