/*--------------------------------*- C++ -*----------------------------------*\
| =========                 |                                                 |
| \\      /  F ield         | OpenFOAM: The Open Source CFD Toolbox           |
|  \\    /   O peration     | Version:  4.1                                   |
|   \\  /    A nd           | Web:      www.OpenFOAM.org                      |
|    \\/     M anipulation  |                                                 |
\*---------------------------------------------------------------------------*/
FoamFile
{
    version     2.0;
    format      ascii;
    class       volScalarField;
    location    "3";
    object      p;
}
// * * * * * * * * * * * * * * * * * * * * * * * * * * * * * * * * * * * * * //

dimensions      [0 2 -2 0 0 0 0];

internalField   nonuniform List<scalar> 
400
(
1.79666e-07
0.000390442
-0.0037376
-0.00785091
-0.0114582
-0.0145106
-0.017006
-0.0189501
-0.0203833
-0.0213714
-0.0219814
-0.0222437
-0.0221309
-0.0215437
-0.0202882
-0.0179548
-0.0131339
-0.00456776
0.00889376
0.0298988
-0.00586062
-0.00537075
-0.00730973
-0.0101223
-0.0131207
-0.0158553
-0.0181258
-0.0198882
-0.021182
-0.0220774
-0.0226451
-0.0229243
-0.0229127
-0.0225346
-0.0215627
-0.0196543
-0.0164481
-0.0108273
-0.00248057
0.0167885
-0.00669619
-0.00720169
-0.00915408
-0.0118115
-0.0145565
-0.0169865
-0.0189366
-0.0204097
-0.0214812
-0.0222251
-0.0227029
-0.0229275
-0.0229236
-0.0226305
-0.0220255
-0.0207811
-0.0188078
-0.0152827
-0.0114483
-0.000250196
-0.00814075
-0.00912173
-0.0111323
-0.0137292
-0.0162425
-0.018367
-0.020023
-0.0212423
-0.0221082
-0.0226967
-0.0230636
-0.0232365
-0.0232263
-0.0229834
-0.0225025
-0.0216113
-0.0204031
-0.0178458
-0.0165197
-0.0100655
-0.00866203
-0.0100246
-0.012162
-0.0147489
-0.0171411
-0.0191204
-0.0206351
-0.0217208
-0.0224641
-0.0229463
-0.0232268
-0.0233402
-0.0233107
-0.0231004
-0.0226875
-0.0219645
-0.0211509
-0.0188125
-0.0179278
-0.0129828
-0.00788969
-0.00965674
-0.012005
-0.0147625
-0.0172587
-0.0192874
-0.020815
-0.0218913
-0.0226068
-0.0230501
-0.0232897
-0.0233633
-0.0232823
-0.0230288
-0.0225771
-0.0218496
-0.0208817
-0.0184987
-0.0163047
-0.0114133
-0.00585369
-0.00790203
-0.0105716
-0.013641
-0.0164559
-0.0187476
-0.0204667
-0.0216688
-0.0224567
-0.0229234
-0.0231502
-0.0231902
-0.0230478
-0.0227221
-0.0221656
-0.0212206
-0.0195862
-0.016449
-0.0123983
-0.0070722
-0.00281347
-0.00511645
-0.00812617
-0.0115915
-0.0148465
-0.01754
-0.0195842
-0.0210221
-0.0219605
-0.0225022
-0.0227374
-0.0227308
-0.0225133
-0.0220627
-0.0212502
-0.0197572
-0.0169888
-0.0123601
-0.00630625
-0.000702975
0.00031087
-0.00206719
-0.00527463
-0.00904994
-0.0127081
-0.0158337
-0.0182856
-0.0200461
-0.0212083
-0.0218808
-0.0221636
-0.0221227
-0.0217877
-0.0210939
-0.0197962
-0.0173721
-0.0130819
-0.00656285
0.00159295
0.00633032
0.00227504
-0.000114472
-0.00338932
-0.00732523
-0.0112257
-0.0145863
-0.0172525
-0.0192182
-0.0205482
-0.0213255
-0.0216311
-0.0215334
-0.0210758
-0.0201353
-0.0183348
-0.014972
-0.00933474
-0.00138218
0.00731584
0.0116148
0.00229395
-9.1431e-05
-0.00336461
-0.00730298
-0.0112112
-0.0145791
-0.0172521
-0.0192239
-0.0205587
-0.0213392
-0.0216479
-0.0215536
-0.0210945
-0.0201534
-0.0183538
-0.0149937
-0.00936189
-0.00141648
0.00727597
0.0115765
0.000371722
-0.00200006
-0.00520777
-0.00899263
-0.0126671
-0.0158117
-0.0182841
-0.0200631
-0.0212396
-0.0219213
-0.0222087
-0.0221692
-0.021833
-0.021137
-0.0198381
-0.0174159
-0.0131338
-0.00662913
0.0015066
0.00624871
-0.00272879
-0.00502809
-0.00804271
-0.0115238
-0.0148028
-0.0175228
-0.0195911
-0.0210491
-0.0220026
-0.0225544
-0.0227949
-0.0227898
-0.0225698
-0.0221138
-0.0212959
-0.0198001
-0.0170355
-0.012419
-0.00638651
-0.000788878
-0.00576678
-0.00781411
-0.0104918
-0.0135793
-0.0164198
-0.0187378
-0.0204802
-0.0217007
-0.022502
-0.0229776
-0.0232086
-0.0232493
-0.0231054
-0.0227754
-0.0222126
-0.0212616
-0.019626
-0.0164934
-0.0124583
-0.00714295
-0.00781171
-0.00957988
-0.0119366
-0.0147105
-0.0172302
-0.0192828
-0.0208315
-0.0219243
-0.0226518
-0.0231029
-0.0233466
-0.0234215
-0.0233392
-0.0230821
-0.0226247
-0.0218904
-0.020917
-0.01853
-0.016347
-0.0114629
-0.00859699
-0.00996132
-0.012105
-0.0147055
-0.0171169
-0.0191168
-0.0206502
-0.0217511
-0.0225055
-0.022995
-0.0232797
-0.0233944
-0.0233641
-0.0231508
-0.0227329
-0.0220031
-0.0211801
-0.0188339
-0.0179546
-0.0130092
-0.0080878
-0.00906975
-0.0110835
-0.0136901
-0.0162187
-0.0183612
-0.0200342
-0.0212677
-0.0221442
-0.0227399
-0.0231113
-0.023286
-0.0232754
-0.0230292
-0.022543
-0.0216435
-0.0204241
-0.0178581
-0.0165268
-0.0100722
-0.00665152
-0.00715729
-0.00911022
-0.0117741
-0.0145312
-0.0169766
-0.0189423
-0.0204287
-0.0215106
-0.0222616
-0.0227439
-0.0229703
-0.0229661
-0.0226704
-0.0220596
-0.0208055
-0.01882
-0.0152842
-0.0114392
-0.000239624
-0.00582112
-0.00533086
-0.00726776
-0.010084
-0.0130917
-0.0158394
-0.0181242
-0.0199001
-0.0212052
-0.0221089
-0.0226821
-0.022964
-0.0229521
-0.0225702
-0.0215909
-0.0196716
-0.0164518
-0.0108177
-0.00245851
0.0168122
3.80629e-05
0.000427047
-0.00369953
-0.00781551
-0.0114305
-0.0144945
-0.0170036
-0.0189611
-0.0204056
-0.0214021
-0.0220172
-0.0222815
-0.0221676
-0.0215763
-0.0203132
-0.0179688
-0.0131323
-0.00455155
0.00892106
0.0299289
)
;

boundaryField
{
    movingWall
    {
        type            zeroGradient;
    }
    movingWallBottom
    {
        type            zeroGradient;
    }
    fixedWalls
    {
        type            zeroGradient;
    }
    frontAndBack
    {
        type            empty;
    }
}


// ************************************************************************* //
