/*--------------------------------*- C++ -*----------------------------------*\
| =========                 |                                                 |
| \\      /  F ield         | OpenFOAM: The Open Source CFD Toolbox           |
|  \\    /   O peration     | Version:  4.1                                   |
|   \\  /    A nd           | Web:      www.OpenFOAM.org                      |
|    \\/     M anipulation  |                                                 |
\*---------------------------------------------------------------------------*/
FoamFile
{
    version     2.0;
    format      ascii;
    class       surfaceScalarField;
    location    "3";
    object      phi;
}
// * * * * * * * * * * * * * * * * * * * * * * * * * * * * * * * * * * * * * //

dimensions      [0 3 -1 0 0 0 0];

internalField   nonuniform List<scalar> 
760
(
3.20799e-06
-3.208e-06
5.44345e-06
-2.23546e-06
7.20652e-06
-1.76307e-06
8.69255e-06
-1.48603e-06
9.92295e-06
-1.2304e-06
1.09224e-05
-9.99439e-07
1.17278e-05
-8.05418e-07
1.23805e-05
-6.52724e-07
1.29175e-05
-5.37015e-07
1.33631e-05
-4.45587e-07
1.37339e-05
-3.70754e-07
1.4031e-05
-2.97123e-07
1.42549e-05
-2.23931e-07
1.4371e-05
-1.16047e-07
1.4383e-05
-1.20085e-08
1.40498e-05
3.33149e-07
1.33249e-05
7.24921e-07
1.13965e-05
1.92847e-06
7.83776e-06
3.55869e-06
7.83776e-06
1.01548e-06
-4.22349e-06
2.56577e-06
-3.78574e-06
4.04169e-06
-3.23899e-06
5.20597e-06
-2.65032e-06
6.07777e-06
-2.10219e-06
6.70638e-06
-1.62805e-06
7.15376e-06
-1.2528e-06
7.46347e-06
-9.62436e-07
7.67342e-06
-7.46972e-07
7.80651e-06
-5.78673e-07
7.88756e-06
-4.51805e-07
7.91971e-06
-3.2927e-07
7.91332e-06
-2.1754e-07
7.80222e-06
-4.948e-09
7.62783e-06
1.6238e-07
7.31053e-06
6.50444e-07
6.68716e-06
1.3483e-06
5.50699e-06
3.10864e-06
3.02673e-06
6.03895e-06
1.08645e-05
9.73048e-07
-5.19654e-06
2.20642e-06
-5.01911e-06
3.26473e-06
-4.2973e-06
4.04601e-06
-3.4316e-06
4.57688e-06
-2.63306e-06
4.9126e-06
-1.96377e-06
5.09766e-06
-1.43786e-06
5.17084e-06
-1.03562e-06
5.16008e-06
-7.36211e-07
5.09324e-06
-5.11834e-07
4.97999e-06
-3.38552e-07
4.83899e-06
-1.88273e-07
4.66891e-06
-4.74647e-08
4.49047e-06
1.73501e-07
4.19761e-06
4.55233e-07
3.82806e-06
1.02e-06
3.19763e-06
1.97873e-06
2.42657e-06
3.8797e-06
1.11905e-06
7.34647e-06
1.19835e-05
7.52309e-07
-5.94884e-06
1.48347e-06
-5.75027e-06
2.10234e-06
-4.91618e-06
2.56947e-06
-3.89873e-06
2.88299e-06
-2.94657e-06
3.06447e-06
-2.14526e-06
3.14242e-06
-1.5158e-06
3.14773e-06
-1.04093e-06
3.10262e-06
-6.911e-07
3.02269e-06
-4.3191e-07
2.91547e-06
-2.31335e-07
2.78187e-06
-5.46715e-08
2.61396e-06
1.20445e-07
2.42799e-06
3.59478e-07
2.18565e-06
6.97569e-07
1.91833e-06
1.28732e-06
1.49072e-06
2.40633e-06
1.00236e-06
4.36807e-06
4.08296e-07
7.94053e-06
1.23918e-05
3.89426e-07
-6.33827e-06
6.26275e-07
-5.98712e-06
8.44912e-07
-5.13481e-06
1.01517e-06
-4.06899e-06
1.12337e-06
-3.05478e-06
1.18198e-06
-2.20387e-06
1.20113e-06
-1.53495e-06
1.19158e-06
-1.03138e-06
1.16057e-06
-6.60088e-07
1.11278e-06
-3.84124e-07
1.04985e-06
-1.68405e-07
9.77878e-07
1.73036e-08
8.80724e-07
2.17599e-07
7.6743e-07
4.72773e-07
6.29136e-07
8.35863e-07
4.51156e-07
1.4653e-06
3.19571e-07
2.53792e-06
-9.09078e-08
4.77854e-06
-2.00288e-07
8.04991e-06
1.21915e-05
-1.93752e-07
-6.14452e-06
-3.82944e-07
-5.79793e-06
-5.33284e-07
-4.98447e-06
-6.30118e-07
-3.97215e-06
-7.01595e-07
-2.9833e-06
-7.54026e-07
-2.15144e-06
-7.89918e-07
-1.49906e-06
-8.11671e-07
-1.00963e-06
-8.22367e-07
-6.49392e-07
-8.2562e-07
-3.80871e-07
-8.26967e-07
-1.67059e-07
-8.31507e-07
2.18435e-08
-8.43928e-07
2.3002e-07
-8.61829e-07
4.90674e-07
-8.94026e-07
8.6806e-07
-9.27778e-07
1.49905e-06
-9.45514e-07
2.55566e-06
-9.25337e-07
4.75837e-06
-8.63172e-07
7.98774e-06
1.13284e-05
-7.31762e-07
-5.41275e-06
-1.4501e-06
-5.07959e-06
-1.99942e-06
-4.43515e-06
-2.40173e-06
-3.56984e-06
-2.67318e-06
-2.71185e-06
-2.8463e-06
-1.97831e-06
-2.94621e-06
-1.39916e-06
-2.99257e-06
-9.63258e-07
-2.99976e-06
-6.42202e-07
-2.97787e-06
-4.02767e-07
-2.93607e-06
-2.0886e-07
-2.89245e-06
-2.17764e-08
-2.83771e-06
1.75289e-07
-2.78175e-06
4.34712e-07
-2.73591e-06
8.22221e-07
-2.68005e-06
1.44318e-06
-2.61936e-06
2.49496e-06
-2.34021e-06
4.47922e-06
-1.75295e-06
7.40049e-06
9.57542e-06
-1.34804e-06
-4.06471e-06
-2.59408e-06
-3.83355e-06
-3.6147e-06
-3.41453e-06
-4.38023e-06
-2.80432e-06
-4.91588e-06
-2.1762e-06
-5.27682e-06
-1.61737e-06
-5.50706e-06
-1.16892e-06
-5.64929e-06
-8.21022e-07
-5.73009e-06
-5.61405e-07
-5.77096e-06
-3.61893e-07
-5.78477e-06
-1.95057e-07
-5.78296e-06
-2.35859e-08
-5.76076e-06
1.53092e-07
-5.70673e-06
3.80685e-07
-5.59424e-06
7.09731e-07
-5.37825e-06
1.2272e-06
-5.01334e-06
2.13005e-06
-4.20819e-06
3.67407e-06
-2.51644e-06
5.70874e-06
7.05899e-06
-1.89027e-06
-2.17444e-06
-3.66021e-06
-2.06362e-06
-5.21266e-06
-1.86208e-06
-6.46806e-06
-1.54892e-06
-7.42356e-06
-1.2207e-06
-8.10867e-06
-9.3226e-07
-8.58491e-06
-6.92684e-07
-8.90656e-06
-4.99377e-07
-9.11998e-06
-3.47978e-07
-9.25432e-06
-2.27558e-07
-9.32611e-06
-1.23264e-07
-9.34466e-06
-5.03595e-09
-9.28673e-06
9.51585e-08
-9.13122e-06
2.25177e-07
-8.83304e-06
4.1155e-07
-8.31006e-06
7.04214e-07
-7.40146e-06
1.22145e-06
-5.79334e-06
2.06595e-06
-3.33477e-06
3.25016e-06
3.72422e-06
-2.15432e-06
-2.01132e-08
-4.20038e-06
-1.75659e-08
-6.05339e-06
-9.06991e-09
-7.60367e-06
1.36679e-09
-8.83353e-06
9.16677e-09
-9.7816e-06
1.58032e-08
-1.04924e-05
1.81042e-08
-1.10103e-05
1.85678e-08
-1.13753e-05
1.698e-08
-1.16175e-05
1.46877e-08
-1.17527e-05
1.18826e-08
-1.17663e-05
8.61412e-09
-1.16761e-05
4.92821e-09
-1.14515e-05
6.07555e-10
-1.10377e-05
-2.30266e-09
-1.03278e-05
-5.61904e-09
-9.09744e-06
-8.95556e-09
-7.01784e-06
-1.36449e-08
-3.74868e-06
-1.90066e-08
-2.44538e-08
-2.15018e-06
2.13006e-06
-4.19634e-06
2.0286e-06
-6.05072e-06
1.84531e-06
-7.60189e-06
1.55254e-06
-8.83218e-06
1.23946e-06
-9.77761e-06
9.61234e-07
-1.04864e-05
7.26906e-07
-1.10026e-05
5.34802e-07
-1.13668e-05
3.81095e-07
-1.16081e-05
2.56006e-07
-1.17419e-05
1.45706e-07
-1.17578e-05
2.44884e-08
-1.16642e-05
-8.86843e-08
-1.14389e-05
-2.24608e-07
-1.10251e-05
-4.16195e-07
-1.03159e-05
-7.1482e-07
-9.08674e-06
-1.23807e-06
-7.00927e-06
-2.09111e-06
-3.7435e-06
-3.28478e-06
-3.76795e-06
-1.89558e-06
4.02564e-06
-3.6721e-06
3.80512e-06
-5.2307e-06
3.4039e-06
-6.49043e-06
2.81227e-06
-7.44888e-06
2.19792e-06
-8.13299e-06
1.64534e-06
-8.60471e-06
1.19863e-06
-8.91875e-06
8.48841e-07
-9.12322e-06
5.85561e-07
-9.24815e-06
3.8094e-07
-9.31175e-06
2.09306e-07
-9.32095e-06
3.36819e-08
-9.26031e-06
-1.49319e-07
-9.10333e-06
-3.81594e-07
-8.80484e-06
-7.14681e-07
-8.28355e-06
-1.23611e-06
-7.37873e-06
-2.14289e-06
-5.77675e-06
-3.6931e-06
-3.32522e-06
-5.73631e-06
-7.09317e-06
-1.35704e-06
5.38268e-06
-2.61131e-06
5.0594e-06
-3.6389e-06
4.43148e-06
-4.40856e-06
3.58193e-06
-4.94436e-06
2.73372e-06
-5.30192e-06
2.0029e-06
-5.52577e-06
1.42248e-06
-5.66033e-06
9.83402e-07
-5.73291e-06
6.58145e-07
-5.7659e-06
4.13928e-07
-5.77241e-06
2.15818e-07
-5.76421e-06
2.54742e-08
-5.73761e-06
-1.75914e-07
-5.68056e-06
-4.38641e-07
-5.56674e-06
-8.28504e-07
-5.35132e-06
-1.45153e-06
-4.98891e-06
-2.5053e-06
-4.19066e-06
-4.49135e-06
-2.50818e-06
-7.41878e-06
-9.60135e-06
-7.4019e-07
6.12287e-06
-1.46575e-06
5.78497e-06
-2.01994e-06
4.98567e-06
-2.4236e-06
3.98558e-06
-2.69312e-06
3.00324e-06
-2.86237e-06
2.17215e-06
-2.95752e-06
1.51763e-06
-2.99903e-06
1.02491e-06
-3.00173e-06
6.60845e-07
-2.97615e-06
3.88351e-07
-2.93126e-06
1.70934e-07
-2.88468e-06
-2.11114e-08
-2.82812e-06
-2.32477e-07
-2.77063e-06
-4.96128e-07
-2.72302e-06
-8.76108e-07
-2.66523e-06
-1.50933e-06
-2.60295e-06
-2.56758e-06
-2.32458e-06
-4.76972e-06
-1.74466e-06
-7.99871e-06
-1.1346e-05
-2.00593e-07
6.32346e-06
-3.94833e-07
5.97921e-06
-5.47449e-07
5.13828e-06
-6.43884e-07
4.08202e-06
-7.12682e-07
3.07204e-06
-7.61617e-07
2.22108e-06
-7.93873e-07
1.54989e-06
-8.12238e-07
1.04327e-06
-8.20093e-07
6.687e-07
-8.21243e-07
3.89501e-07
-8.21104e-07
1.70795e-07
-8.24645e-07
-1.75696e-08
-8.36621e-07
-2.20501e-07
-8.54545e-07
-4.78205e-07
-8.86847e-07
-8.43805e-07
-9.20748e-07
-1.47543e-06
-9.37555e-07
-2.55077e-06
-9.1807e-07
-4.7892e-06
-8.58063e-07
-8.05872e-06
-1.22041e-05
3.84215e-07
5.93925e-06
6.17987e-07
5.74544e-06
8.36079e-07
4.92019e-06
1.00854e-06
3.90956e-06
1.12004e-06
2.96054e-06
1.18208e-06
2.15905e-06
1.20436e-06
1.52761e-06
1.19745e-06
1.05018e-06
1.16847e-06
6.9768e-07
1.12207e-06
4.35909e-07
1.05987e-06
2.32991e-07
9.88268e-07
5.40323e-08
8.90859e-07
-1.23091e-07
7.7705e-07
-3.64396e-07
6.38031e-07
-7.04785e-07
4.59736e-07
-1.29713e-06
3.25905e-07
-2.41694e-06
-8.65704e-08
-4.37673e-06
-1.95035e-07
-7.95025e-06
-1.23991e-05
7.48338e-07
5.19091e-06
1.47775e-06
5.01602e-06
2.0974e-06
4.30054e-06
2.56754e-06
3.43942e-06
2.88506e-06
2.64302e-06
3.07046e-06
1.97364e-06
3.15169e-06
1.44638e-06
3.1595e-06
1.04237e-06
3.11612e-06
7.41063e-07
3.03726e-06
5.14766e-07
2.93047e-06
3.39777e-07
2.79675e-06
1.87752e-07
2.62795e-06
4.57158e-08
2.44104e-06
-1.7749e-07
2.19703e-06
-4.60774e-07
1.92745e-06
-1.02755e-06
1.49711e-06
-1.9866e-06
1.00793e-06
-3.88755e-06
4.10602e-07
-7.35292e-06
-1.19885e-05
9.7023e-07
4.22068e-06
2.20234e-06
3.78391e-06
3.26215e-06
3.24073e-06
4.04688e-06
2.65468e-06
4.582e-06
2.10791e-06
4.92182e-06
1.63383e-06
5.11031e-06
1.25788e-06
5.18622e-06
9.66461e-07
5.1773e-06
7.49981e-07
5.11155e-06
5.80522e-07
4.99847e-06
4.52854e-07
4.85723e-06
3.2899e-07
4.68649e-06
2.16454e-07
4.50648e-06
2.52254e-09
4.211e-06
-1.65297e-07
3.83872e-06
-6.55262e-07
3.20508e-06
-1.35296e-06
2.43129e-06
-3.11376e-06
1.12111e-06
-6.04274e-06
-1.08674e-05
1.0133e-06
3.20738e-06
2.56238e-06
2.23483e-06
4.0395e-06
1.76362e-06
5.20656e-06
1.48762e-06
6.08187e-06
1.23259e-06
6.71401e-06
1.00169e-06
7.16449e-06
8.07403e-07
7.47673e-06
6.54222e-07
7.68855e-06
5.38166e-07
7.82287e-06
4.46203e-07
7.90452e-06
3.712e-07
7.93658e-06
2.9693e-07
7.92941e-06
2.23625e-07
7.8168e-06
1.15127e-07
7.6405e-06
1.10081e-08
7.32054e-06
-3.353e-07
6.69425e-06
-7.26672e-07
5.51125e-06
-1.93076e-06
3.02877e-06
-3.56026e-06
-7.83862e-06
3.20738e-06
5.44221e-06
7.20583e-06
8.69346e-06
9.92605e-06
1.09277e-05
1.17351e-05
1.23894e-05
1.29275e-05
1.33737e-05
1.37449e-05
1.40419e-05
1.42655e-05
1.43806e-05
1.43916e-05
1.40563e-05
1.33296e-05
1.13989e-05
7.83862e-06
)
;

boundaryField
{
    movingWall
    {
        type            calculated;
        value           uniform 0;
    }
    movingWallBottom
    {
        type            calculated;
        value           uniform 0;
    }
    fixedWalls
    {
        type            calculated;
        value           uniform 0;
    }
    frontAndBack
    {
        type            empty;
        value           nonuniform 0();
    }
}


// ************************************************************************* //
