/*--------------------------------*- C++ -*----------------------------------*\
| =========                 |                                                 |
| \\      /  F ield         | OpenFOAM: The Open Source CFD Toolbox           |
|  \\    /   O peration     | Version:  4.1                                   |
|   \\  /    A nd           | Web:      www.OpenFOAM.org                      |
|    \\/     M anipulation  |                                                 |
\*---------------------------------------------------------------------------*/
FoamFile
{
    version     2.0;
    format      ascii;
    class       volVectorField;
    location    "3";
    object      U;
}
// * * * * * * * * * * * * * * * * * * * * * * * * * * * * * * * * * * * * * //

dimensions      [0 1 -1 0 0 0 0];

internalField   nonuniform List<vector> 
400
(
(0.063661 -0.0987145 0)
(0.0776026 -0.0644134 0)
(0.124361 -0.0442667 0)
(0.15988 -0.0346822 0)
(0.187316 -0.0287271 0)
(0.209587 -0.0243385 0)
(0.227327 -0.0208015 0)
(0.242173 -0.0180188 0)
(0.253767 -0.0156316 0)
(0.263699 -0.013762 0)
(0.2712 -0.0119318 0)
(0.277861 -0.0104922 0)
(0.282232 -0.00869895 0)
(0.285813 -0.00717891 0)
(0.286352 -0.00466284 0)
(0.28336 -0.00133823 0)
(0.27314 0.000792625 0)
(0.254359 0.011703 0)
(0.192051 0.0225702 0)
(0.174662 0.117549 0)
(0.0155984 -0.0509899 0)
(0.0312017 -0.0423716 0)
(0.0655255 -0.0381446 0)
(0.0918965 -0.0327258 0)
(0.112649 -0.0263821 0)
(0.128293 -0.0204962 0)
(0.13929 -0.0156394 0)
(0.14727 -0.0118323 0)
(0.152097 -0.00919894 0)
(0.155711 -0.00709503 0)
(0.157064 -0.00569249 0)
(0.158463 -0.00399716 0)
(0.157664 -0.00268851 0)
(0.157331 0.00057226 0)
(0.152607 0.00321712 0)
(0.149984 0.0113877 0)
(0.135863 0.0214461 0)
(0.129662 0.0507772 0)
(0.0679297 0.09516 0)
(0.0921566 0.167216 0)
(0.0117008 -0.101342 0)
(0.0305183 -0.0962353 0)
(0.0540616 -0.0835109 0)
(0.072804 -0.0688195 0)
(0.0861591 -0.0547268 0)
(0.0955013 -0.0419411 0)
(0.100972 -0.0316188 0)
(0.103552 -0.0237075 0)
(0.103883 -0.0178 0)
(0.103026 -0.0133671 0)
(0.100819 -0.00992481 0)
(0.0985895 -0.00694862 0)
(0.094507 -0.00410209 0)
(0.0920797 -0.000233222 0)
(0.0851895 0.00471591 0)
(0.0818926 0.0159184 0)
(0.0662109 0.0336275 0)
(0.0680289 0.0725794 0)
(0.0127718 0.138347 0)
(0.0514132 0.226959 0)
(0.00815503 -0.114844 0)
(0.0224285 -0.111018 0)
(0.0344423 -0.0945365 0)
(0.0461336 -0.0742495 0)
(0.0546897 -0.0555959 0)
(0.0600499 -0.0405775 0)
(0.0627436 -0.0290344 0)
(0.0634538 -0.0202596 0)
(0.0628845 -0.0137301 0)
(0.0615263 -0.00881911 0)
(0.0595303 -0.00501046 0)
(0.0571529 -0.00171395 0)
(0.0538543 0.00157051 0)
(0.0506714 0.00608968 0)
(0.0454378 0.0123058 0)
(0.0426384 0.0237971 0)
(0.0294922 0.0448154 0)
(0.037671 0.0850632 0)
(-0.00806983 0.157536 0)
(0.033821 0.25587 0)
(0.00344416 -0.126104 0)
(0.0103446 -0.121117 0)
(0.0132499 -0.103933 0)
(0.0181075 -0.0825085 0)
(0.0213348 -0.0621688 0)
(0.0232813 -0.0449135 0)
(0.0242129 -0.031311 0)
(0.0242734 -0.0211065 0)
(0.0237807 -0.0136184 0)
(0.0229193 -0.00812044 0)
(0.0217539 -0.00388211 0)
(0.0203597 -0.000189903 0)
(0.0185707 0.00357822 0)
(0.0165443 0.00854354 0)
(0.0135891 0.0156241 0)
(0.0126075 0.0278889 0)
(0.00227454 0.0501011 0)
(0.0146104 0.0925567 0)
(-0.0213471 0.165777 0)
(0.01918 0.256603 0)
(-0.00456119 -0.127399 0)
(-0.00520923 -0.119406 0)
(-0.010921 -0.102162 0)
(-0.0125216 -0.0811854 0)
(-0.0136734 -0.0609295 0)
(-0.0145889 -0.0439375 0)
(-0.0152895 -0.0305893 0)
(-0.0158603 -0.0205525 0)
(-0.0161916 -0.0131356 0)
(-0.0163868 -0.00758489 0)
(-0.0164564 -0.00319102 0)
(-0.0165638 0.000716578 0)
(-0.0167891 0.0047759 0)
(-0.0171166 0.0101308 0)
(-0.0178444 0.0178 0)
(-0.0176007 0.0303303 0)
(-0.0234703 0.0513734 0)
(-0.00948398 0.0945441 0)
(-0.0341323 0.162486 0)
(0.0102582 0.24313 0)
(-0.0111161 -0.11522 0)
(-0.0222134 -0.109736 0)
(-0.0371718 -0.0952621 0)
(-0.0460876 -0.076209 0)
(-0.0516817 -0.0576159 0)
(-0.0555887 -0.0418674 0)
(-0.0579009 -0.0294125 0)
(-0.0593418 -0.0200117 0)
(-0.0598303 -0.0131125 0)
(-0.0596993 -0.00794556 0)
(-0.059103 -0.00377128 0)
(-0.0583046 -7.67627e-06 0)
(-0.0573998 0.00401931 0)
(-0.0564821 0.00886352 0)
(-0.0560875 0.0157305 0)
(-0.0557257 0.0275448 0)
(-0.0564992 0.0484289 0)
(-0.0441865 0.0926499 0)
(-0.0518456 0.158013 0)
(-0.00473719 0.215876 0)
(-0.0194538 -0.0939434 0)
(-0.0400534 -0.088625 0)
(-0.0654002 -0.0783128 0)
(-0.0831612 -0.0637629 0)
(-0.0945225 -0.0490776 0)
(-0.10282 -0.036224 0)
(-0.107931 -0.0258688 0)
(-0.111571 -0.018 0)
(-0.113638 -0.0121106 0)
(-0.114869 -0.00771643 0)
(-0.115421 -0.00413754 0)
(-0.115671 -0.00064261 0)
(-0.115856 0.00342674 0)
(-0.115922 0.00879791 0)
(-0.115491 0.0167239 0)
(-0.11354 0.0291935 0)
(-0.106924 0.0509504 0)
(-0.0894503 0.0897105 0)
(-0.0695692 0.140898 0)
(-0.0176327 0.176098 0)
(-0.0257637 -0.0606778 0)
(-0.056117 -0.0580569 0)
(-0.0921269 -0.0516316 0)
(-0.121068 -0.0422581 0)
(-0.141093 -0.0327208 0)
(-0.157175 -0.0244283 0)
(-0.167383 -0.018015 0)
(-0.175174 -0.0128198 0)
(-0.18007 -0.00889155 0)
(-0.183715 -0.00569687 0)
(-0.185698 -0.00294542 0)
(-0.186992 -3.50824e-05 0)
(-0.187563 0.00336566 0)
(-0.186724 0.00772414 0)
(-0.183888 0.0139523 0)
(-0.176446 0.0238617 0)
(-0.160016 0.0408932 0)
(-0.130486 0.0680583 0)
(-0.0823919 0.10261 0)
(-0.0449599 0.118114 0)
(-0.0287479 -0.021596 0)
(-0.0638926 -0.0206144 0)
(-0.105737 -0.0187057 0)
(-0.141432 -0.0156826 0)
(-0.167112 -0.0126008 0)
(-0.187862 -0.00982532 0)
(-0.203517 -0.00702111 0)
(-0.215515 -0.00495589 0)
(-0.223995 -0.00330025 0)
(-0.230074 -0.00206739 0)
(-0.233802 -0.000961598 0)
(-0.235805 0.000117321 0)
(-0.236279 0.00153803 0)
(-0.234876 0.00321052 0)
(-0.230023 0.0057241 0)
(-0.218354 0.00968049 0)
(-0.195409 0.0165176 0)
(-0.15705 0.0269461 0)
(-0.101368 0.039915 0)
(-0.0494067 0.0444328 0)
(-0.0286463 0.0207642 0)
(-0.0638079 0.0199264 0)
(-0.10565 0.0183722 0)
(-0.141403 0.0157514 0)
(-0.167121 0.0129856 0)
(-0.187803 0.0104625 0)
(-0.203419 0.00774614 0)
(-0.215379 0.00570016 0)
(-0.223834 0.00397848 0)
(-0.229885 0.00264788 0)
(-0.233603 0.00141151 0)
(-0.235631 0.000182312 0)
(-0.236042 -0.00137065 0)
(-0.234635 -0.00319792 0)
(-0.229758 -0.00584054 0)
(-0.218111 -0.00995013 0)
(-0.195178 -0.0169419 0)
(-0.156872 -0.0275819 0)
(-0.101228 -0.0407745 0)
(-0.0492415 -0.0455253 0)
(-0.0257921 0.0598548 0)
(-0.0562789 0.057433 0)
(-0.0924269 0.0513635 0)
(-0.121512 0.0423732 0)
(-0.141587 0.0331181 0)
(-0.157712 0.0249612 0)
(-0.16785 0.0186305 0)
(-0.175518 0.0134298 0)
(-0.18023 0.00945422 0)
(-0.183685 0.00616183 0)
(-0.18548 0.00329775 0)
(-0.186606 0.000271911 0)
(-0.187012 -0.0032412 0)
(-0.186192 -0.0077174 0)
(-0.183283 -0.0140431 0)
(-0.1759 -0.0240551 0)
(-0.159499 -0.0411874 0)
(-0.130096 -0.0685003 0)
(-0.0822017 -0.103225 0)
(-0.0446776 -0.118844 0)
(-0.019549 0.0932441 0)
(-0.040311 0.0881177 0)
(-0.0658242 0.0781344 0)
(-0.0837362 0.063921 0)
(-0.0951313 0.0494727 0)
(-0.10339 0.0367268 0)
(-0.108378 0.0263778 0)
(-0.111873 0.0184649 0)
(-0.113774 0.0124987 0)
(-0.114843 0.00800748 0)
(-0.11524 0.00434411 0)
(-0.115356 0.000763994 0)
(-0.115415 -0.00338234 0)
(-0.11541 -0.00881376 0)
(-0.114925 -0.0167936 0)
(-0.112965 -0.0293108 0)
(-0.106396 -0.0511111 0)
(-0.089003 -0.0899644 0)
(-0.0694044 -0.141321 0)
(-0.0174667 -0.176692 0)
(-0.0112094 0.114673 0)
(-0.0224631 0.109379 0)
(-0.037551 0.0952164 0)
(-0.0465588 0.0764513 0)
(-0.0521307 0.0580262 0)
(-0.0559661 0.0423105 0)
(-0.0581766 0.0298201 0)
(-0.0595153 0.0203535 0)
(-0.0599106 0.0133749 0)
(-0.0596963 0.00812218 0)
(-0.0590312 0.00386626 0)
(-0.0581773 3.04219e-05 0)
(-0.0572202 -0.0040654 0)
(-0.0562704 -0.00897705 0)
(-0.055833 -0.0158955 0)
(-0.0554288 -0.0277418 0)
(-0.0561805 -0.0486327 0)
(-0.0438392 -0.0928195 0)
(-0.0516465 -0.158219 0)
(-0.00463692 -0.216266 0)
(-0.00466057 0.127015 0)
(-0.00541125 0.119185 0)
(-0.0112014 0.102195 0)
(-0.0128361 0.0814359 0)
(-0.013942 0.0612881 0)
(-0.0147853 0.0443079 0)
(-0.0154036 0.0309201 0)
(-0.0159015 0.0208224 0)
(-0.0161688 0.0133344 0)
(-0.0163159 0.00771121 0)
(-0.016349 0.00325176 0)
(-0.0164339 -0.000714831 0)
(-0.0166443 -0.00483002 0)
(-0.0169676 -0.0102383 0)
(-0.017694 -0.0179653 0)
(-0.0174506 -0.03056 0)
(-0.0233215 -0.051671 0)
(-0.00931272 -0.0948172 0)
(-0.0340126 -0.162723 0)
(0.0103123 -0.243429 0)
(0.00338868 0.125836 0)
(0.0102067 0.120985 0)
(0.0130685 0.104019 0)
(0.0179352 0.0827686 0)
(0.0212206 0.0625065 0)
(0.0232419 0.0452449 0)
(0.0242477 0.0315925 0)
(0.0243692 0.0213248 0)
(0.0239237 0.0137731 0)
(0.023096 0.00821558 0)
(0.0219506 0.00392241 0)
(0.0205677 0.00018019 0)
(0.018777 -0.00363382 0)
(0.0167444 -0.00864809 0)
(0.0137751 -0.0157763 0)
(0.0127768 -0.0280854 0)
(0.00242914 -0.0503237 0)
(0.014755 -0.0927265 0)
(-0.0212503 -0.165935 0)
(0.0192208 -0.256796 0)
(0.00809417 0.114703 0)
(0.0223355 0.11095 0)
(0.0343212 0.0946191 0)
(0.0460466 0.0744403 0)
(0.0546746 0.05583 0)
(0.060122 0.0408034 0)
(0.0628981 0.0292268 0)
(0.0636701 0.0204118 0)
(0.063143 0.0138391 0)
(0.0618125 0.00888401 0)
(0.059828 0.0050346 0)
(0.0574565 0.00169677 0)
(0.0541427 -0.00162602 0)
(0.0509468 -0.00618008 0)
(0.0456789 -0.0124341 0)
(0.0428541 -0.0239696 0)
(0.0296508 -0.0450054 0)
(0.0377823 -0.085254 0)
(-0.00798378 -0.157716 0)
(0.0338511 -0.25598 0)
(0.01165 0.101254 0)
(0.0304533 0.0961883 0)
(0.0539811 0.0835748 0)
(0.0727719 0.0689631 0)
(0.0862037 0.0549133 0)
(0.095633 0.0421292 0)
(0.101188 0.0317842 0)
(0.103838 0.0238402 0)
(0.104213 0.0178985 0)
(0.103389 0.0134318 0)
(0.101188 0.0099606 0)
(0.0989634 0.00695243 0)
(0.09486 0.00408151 0)
(0.092423 0.000178129 0)
(0.0854792 -0.00479938 0)
(0.0821494 -0.0160369 0)
(0.0663912 -0.0337433 0)
(0.0681497 -0.0726921 0)
(0.0128374 -0.138424 0)
(0.0514429 -0.22703 0)
(0.0155551 0.0509694 0)
(0.0311512 0.0423472 0)
(0.0654602 0.0381551 0)
(0.0918705 0.0327691 0)
(0.112684 0.0264439 0)
(0.128401 0.0205599 0)
(0.139465 0.0156933 0)
(0.14751 0.0118697 0)
(0.152378 0.00922356 0)
(0.156031 0.00710289 0)
(0.157396 0.00569476 0)
(0.158805 0.00397961 0)
(0.157995 0.00266661 0)
(0.157643 -0.00061446 0)
(0.152875 -0.00325977 0)
(0.150219 -0.0114566 0)
(0.136031 -0.0215047 0)
(0.129779 -0.0508411 0)
(0.0679914 -0.095218 0)
(0.0921826 -0.167252 0)
(0.0636432 0.0987112 0)
(0.0775892 0.0644099 0)
(0.12434 0.0442737 0)
(0.15988 0.0346975 0)
(0.187348 0.0287479 0)
(0.209663 0.0243602 0)
(0.227442 0.0208229 0)
(0.242332 0.0180373 0)
(0.25395 0.0156502 0)
(0.263909 0.013777 0)
(0.271414 0.0119477 0)
(0.278084 0.0105016 0)
(0.282443 0.00870871 0)
(0.286018 0.00717815 0)
(0.286527 0.00466578 0)
(0.28351 0.00133147 0)
(0.273252 -0.000791749 0)
(0.254436 -0.0117159 0)
(0.192079 -0.0225713 0)
(0.174671 -0.117546 0)
)
;

boundaryField
{
    movingWall
    {
        type            fixedValue;
        value           uniform (1 0 0);
    }
    movingWallBottom
    {
        type            fixedValue;
        value           uniform (1 0 0);
    }
    fixedWalls
    {
        type            noSlip;
    }
    frontAndBack
    {
        type            empty;
    }
}


// ************************************************************************* //
