/*--------------------------------*- C++ -*----------------------------------*\
| =========                 |                                                 |
| \\      /  F ield         | OpenFOAM: The Open Source CFD Toolbox           |
|  \\    /   O peration     | Version:  4.1                                   |
|   \\  /    A nd           | Web:      www.OpenFOAM.org                      |
|    \\/     M anipulation  |                                                 |
\*---------------------------------------------------------------------------*/
FoamFile
{
    version     2.0;
    format      ascii;
    class       volScalarField;
    location    "8.5";
    object      epsilon;
}
// * * * * * * * * * * * * * * * * * * * * * * * * * * * * * * * * * * * * * //

dimensions      [0 2 -3 0 0 0 0];

internalField   nonuniform List<scalar> 
400
(
0.0399746
0.0701054
0.0914915
0.102885
0.110587
0.116285
0.121008
0.124857
0.128197
0.130941
0.133434
0.135662
0.137941
0.140267
0.143392
0.146322
0.149812
0.154716
0.171118
0.149023
0.0097147
0.00799829
0.00867997
0.00961424
0.0105822
0.0116419
0.012901
0.0143895
0.0160258
0.0178312
0.0196469
0.0216405
0.0233726
0.0255339
0.026895
0.0307166
0.0359446
0.0484914
0.0748624
0.110549
0.0109817
0.00573055
0.00421595
0.00380135
0.00382644
0.00404049
0.00453489
0.00525642
0.00610926
0.00705728
0.00799752
0.0089345
0.0097099
0.0104244
0.0108504
0.0117716
0.0134605
0.0195408
0.0368602
0.0811399
0.0120186
0.00510536
0.00358546
0.00325041
0.00333325
0.00364397
0.00419302
0.00485213
0.00553906
0.00618004
0.00669211
0.00701963
0.00713372
0.00711431
0.00697945
0.00708272
0.00779147
0.011825
0.0247578
0.0660594
0.0128122
0.00495157
0.00362296
0.0035264
0.00384587
0.00442265
0.00507175
0.00570976
0.00624297
0.006609
0.00674405
0.00664325
0.00631693
0.0058296
0.00530658
0.00508971
0.00558809
0.00907622
0.0199972
0.0570279
0.0132151
0.00506548
0.00413047
0.00411419
0.00468152
0.00540585
0.00611105
0.00669028
0.00703161
0.00713329
0.00694
0.00647981
0.00580979
0.00504074
0.00437956
0.00413015
0.00481748
0.00821032
0.0189578
0.0500643
0.0136768
0.00583412
0.00477569
0.00468689
0.00532499
0.00612765
0.00681447
0.00727176
0.00745827
0.0074114
0.00698811
0.00631895
0.005507
0.00470478
0.00424844
0.0041638
0.00510948
0.00871679
0.0195242
0.04374
0.0139694
0.00651259
0.00509752
0.00494022
0.00555349
0.0063528
0.00696452
0.00727217
0.00736165
0.00717136
0.0066687
0.00603888
0.00539703
0.00499093
0.00485346
0.00513093
0.00662132
0.0106859
0.0211482
0.0369973
0.0140738
0.00722443
0.0050952
0.00449444
0.00447552
0.00491746
0.00520192
0.0053935
0.00546357
0.00547433
0.00546024
0.00548956
0.00567081
0.00602889
0.00671197
0.00797204
0.0103336
0.0145986
0.0211566
0.0287649
0.0140986
0.00757625
0.00486836
0.00375185
0.0034317
0.00337771
0.00346434
0.00366622
0.00393098
0.00430254
0.00477075
0.00538718
0.0061755
0.007214
0.00859913
0.0104805
0.0129937
0.015999
0.0174658
0.0160052
0.0140799
0.00755802
0.00487405
0.00377246
0.00346072
0.00341191
0.00351064
0.00371205
0.00397443
0.00433408
0.00478885
0.00538491
0.00615367
0.00716725
0.00853247
0.010406
0.0129472
0.0161414
0.017762
0.0167724
0.0140274
0.00716958
0.00504724
0.00444848
0.00442861
0.00488347
0.00519541
0.00541245
0.00549608
0.00550785
0.00546961
0.00545867
0.0055689
0.0058672
0.00645958
0.00765094
0.00993361
0.0142432
0.0211972
0.029529
0.0138903
0.00644176
0.00501221
0.00482436
0.00540254
0.00619255
0.00680393
0.00712385
0.00722177
0.00706117
0.00657622
0.00595443
0.00530531
0.00487076
0.00471697
0.00495461
0.00639733
0.0104017
0.0208723
0.0373289
0.0135644
0.00575679
0.00467311
0.00457446
0.00517932
0.00596383
0.00663406
0.00708008
0.00726086
0.00722517
0.00682214
0.00617645
0.00538913
0.00460749
0.00416082
0.00408074
0.00500938
0.00856724
0.019317
0.0439618
0.0131202
0.00499379
0.00404582
0.00401719
0.00455911
0.00525918
0.00593923
0.0064988
0.00683956
0.0069472
0.00677172
0.00633771
0.00569951
0.00496173
0.00432255
0.00408009
0.00476228
0.0081191
0.0187844
0.0501605
0.0127272
0.0049097
0.00356089
0.00345393
0.00375588
0.00431114
0.00493515
0.00555073
0.00607183
0.00643593
0.00658066
0.0064975
0.00620033
0.00574129
0.00524584
0.00505113
0.0055547
0.00901611
0.0198533
0.0570498
0.011947
0.00506877
0.00354906
0.00320558
0.00327766
0.00356595
0.00408826
0.00472067
0.00538603
0.00601419
0.00652328
0.00685955
0.00699314
0.00699166
0.00688689
0.00700697
0.00772865
0.0117571
0.0247128
0.0660142
0.0109117
0.00569722
0.00418621
0.0037651
0.00378184
0.00397688
0.00443973
0.00513014
0.00595122
0.00687336
0.00779437
0.00872429
0.00950134
0.0102297
0.010673
0.0116246
0.0133297
0.0194181
0.0367659
0.0810771
0.00966372
0.00796807
0.0086487
0.00956631
0.0105101
0.0115383
0.0127546
0.0142
0.0157884
0.0175531
0.019326
0.0212945
0.023003
0.0251619
0.0265403
0.0304105
0.0356672
0.0482583
0.0747167
0.110378
0.0399754
0.0701822
0.0915538
0.102864
0.110463
0.116067
0.120698
0.124484
0.12776
0.130474
0.132925
0.13515
0.13741
0.139757
0.142893
0.145835
0.149351
0.154275
0.170734
0.148766
)
;

boundaryField
{
    movingWall
    {
        Cmu             0.09;
        kappa           0.41;
        E               9.8;
        type            epsilonWallFunction;
        value           nonuniform List<scalar> 
20
(
0.0399754
0.0701822
0.0915538
0.102864
0.110463
0.116067
0.120698
0.124484
0.12776
0.130474
0.132925
0.13515
0.13741
0.139757
0.142893
0.145835
0.149351
0.154275
0.170734
0.148766
)
;
    }
    movingWallBottom
    {
        Cmu             0.09;
        kappa           0.41;
        E               9.8;
        type            epsilonWallFunction;
        value           nonuniform List<scalar> 
20
(
0.0399746
0.0701054
0.0914915
0.102885
0.110587
0.116285
0.121008
0.124857
0.128197
0.130941
0.133434
0.135662
0.137941
0.140267
0.143392
0.146322
0.149812
0.154716
0.171118
0.149023
)
;
    }
    fixedWalls
    {
        Cmu             0.09;
        kappa           0.41;
        E               9.8;
        type            epsilonWallFunction;
        value           nonuniform List<scalar> 
40
(
0.0399746
0.0097147
0.0109817
0.0120186
0.0128122
0.0132151
0.0136768
0.0139694
0.0140738
0.0140986
0.0140799
0.0140274
0.0138903
0.0135644
0.0131202
0.0127272
0.011947
0.0109117
0.00966372
0.0399754
0.149023
0.110549
0.0811399
0.0660594
0.0570279
0.0500643
0.04374
0.0369973
0.0287649
0.0160052
0.0167724
0.029529
0.0373289
0.0439618
0.0501605
0.0570498
0.0660142
0.0810771
0.110378
0.148766
)
;
    }
    frontAndBack
    {
        type            empty;
    }
}


// ************************************************************************* //
