/*--------------------------------*- C++ -*----------------------------------*\
| =========                 |                                                 |
| \\      /  F ield         | OpenFOAM: The Open Source CFD Toolbox           |
|  \\    /   O peration     | Version:  4.1                                   |
|   \\  /    A nd           | Web:      www.OpenFOAM.org                      |
|    \\/     M anipulation  |                                                 |
\*---------------------------------------------------------------------------*/
FoamFile
{
    version     2.0;
    format      ascii;
    class       volScalarField;
    location    "8.5";
    object      k;
}
// * * * * * * * * * * * * * * * * * * * * * * * * * * * * * * * * * * * * * //

dimensions      [0 2 -2 0 0 0 0];

internalField   nonuniform List<scalar> 
400
(
0.00396171
0.00576138
0.00688038
0.00744031
0.00780715
0.00807308
0.00829022
0.00846512
0.00861543
0.00873792
0.00884852
0.00894673
0.00904668
0.00914808
0.00928346
0.00940949
0.00955852
0.00976599
0.0104445
0.00952494
0.00154281
0.00167013
0.00195018
0.00212229
0.00223896
0.00236192
0.00251161
0.00269542
0.00290546
0.00313946
0.00337841
0.00362163
0.00382992
0.00404062
0.00413895
0.00434161
0.0045208
0.00505772
0.00643428
0.00780544
0.00167419
0.00165044
0.0017762
0.00187563
0.0019539
0.00207907
0.00225762
0.00248319
0.00273598
0.00299424
0.00322696
0.0034123
0.00353179
0.00354357
0.00348959
0.00337678
0.0031617
0.00334786
0.00428837
0.00635113
0.00177799
0.00168635
0.00177254
0.00189492
0.00208595
0.00234452
0.00264005
0.0029437
0.00322218
0.00344677
0.00359117
0.00363413
0.00359139
0.00346071
0.0032145
0.00294211
0.00264039
0.00276389
0.00349357
0.00553755
0.0018554
0.00190765
0.00199758
0.0021313
0.00238386
0.00270398
0.00304419
0.00335954
0.00360235
0.00375041
0.00378759
0.00372008
0.00353632
0.0032541
0.0028969
0.00255705
0.00230021
0.00247638
0.0031788
0.00502057
0.0018941
0.00210498
0.00215316
0.00229518
0.00260863
0.00297185
0.00331087
0.00358422
0.0037705
0.00384046
0.00378231
0.00359324
0.00329342
0.00291334
0.00250207
0.00216571
0.00201971
0.00222812
0.00297519
0.00460306
0.00193795
0.00234128
0.00230004
0.00237078
0.00270374
0.00307412
0.00339019
0.00359761
0.00367907
0.00366112
0.00349985
0.00322671
0.0028674
0.00245942
0.00205077
0.0018384
0.00178302
0.00209565
0.00290386
0.00420675
0.00196548
0.00257185
0.00235922
0.00234757
0.00258762
0.00287357
0.00307542
0.00316718
0.00318285
0.00306373
0.00283966
0.00255109
0.00223731
0.00194617
0.00179695
0.00174288
0.00179829
0.00217035
0.00292386
0.00376247
0.00197525
0.00275526
0.0021445
0.00194526
0.00193564
0.00203984
0.00208521
0.00209777
0.0020468
0.00195244
0.00185529
0.00176524
0.00172013
0.00170328
0.00173082
0.00183768
0.00205082
0.00245919
0.00289044
0.00318126
0.00197757
0.00289292
0.00201472
0.00159524
0.00143678
0.00137539
0.00134904
0.00134119
0.00134768
0.0013829
0.00143238
0.00150849
0.00160566
0.00173128
0.00189061
0.00209605
0.00233254
0.00251604
0.00258308
0.0021521
0.00197581
0.0028861
0.00201794
0.00160475
0.00145086
0.00139305
0.00136863
0.00136146
0.0013672
0.00139717
0.00144315
0.00151308
0.00160639
0.00172631
0.00188155
0.0020871
0.00232933
0.00253238
0.00261233
0.00222042
0.0019709
0.00273891
0.00213075
0.00193128
0.00192289
0.00204394
0.00210085
0.002121
0.00209131
0.00199381
0.00189505
0.00179169
0.00173151
0.00170671
0.00170771
0.00181125
0.00200324
0.00242643
0.00288879
0.00323742
0.00195804
0.00254437
0.00232213
0.0023069
0.0025413
0.00283235
0.00304716
0.00315007
0.00317405
0.00307526
0.00286331
0.0025787
0.00226277
0.00196003
0.00179606
0.00173621
0.00178284
0.00214945
0.00290968
0.00378495
0.00192729
0.00231242
0.00226283
0.00232289
0.00264865
0.00301731
0.00333514
0.00354862
0.00363537
0.00362881
0.00347816
0.0032145
0.00286387
0.00246241
0.00205759
0.00183795
0.00177895
0.00208421
0.00288945
0.00422098
0.00188501
0.00207834
0.00211736
0.00225004
0.00255654
0.00291581
0.00325261
0.0035255
0.00371352
0.0037899
0.00374087
0.00356221
0.00327331
0.00290287
0.00250005
0.00216853
0.00202283
0.00222828
0.00296637
0.00460896
0.00184717
0.00188576
0.00196733
0.00209366
0.00233965
0.00265305
0.00298713
0.00329849
0.00354215
0.00369373
0.0037371
0.00367732
0.00350361
0.00323181
0.00288314
0.00254997
0.00229363
0.00246381
0.00316308
0.00502185
0.0017709
0.00166863
0.0017513
0.00186598
0.00205
0.00230144
0.00258988
0.00288775
0.00316292
0.00338743
0.00353486
0.00358415
0.00354631
0.00342521
0.00318652
0.00292193
0.00262384
0.00274792
0.00348187
0.00553502
0.00166706
0.00163776
0.00175925
0.00185897
0.00193335
0.0020518
0.00222215
0.00243898
0.00268387
0.00293672
0.00316676
0.00335301
0.00347486
0.00349424
0.00344418
0.00333869
0.00313114
0.00332043
0.00427286
0.00634784
0.0015374
0.00166101
0.00193771
0.00210817
0.00222177
0.00233977
0.00248324
0.00266009
0.00286256
0.00308966
0.00332214
0.00356151
0.00376675
0.00397835
0.004079
0.00428792
0.00447476
0.00502424
0.00642133
0.00779736
0.00396176
0.00576559
0.00688351
0.00743931
0.00780131
0.00806301
0.00827607
0.00844823
0.00859582
0.00871711
0.00882597
0.00892416
0.00902339
0.00912586
0.00926185
0.00938855
0.00953888
0.00974741
0.0104289
0.00951398
)
;

boundaryField
{
    movingWall
    {
        type            kqRWallFunction;
        value           nonuniform List<scalar> 
20
(
0.00396176
0.00576559
0.00688351
0.00743931
0.00780131
0.00806301
0.00827607
0.00844823
0.00859582
0.00871711
0.00882597
0.00892416
0.00902339
0.00912586
0.00926185
0.00938855
0.00953888
0.00974741
0.0104289
0.00951398
)
;
    }
    movingWallBottom
    {
        type            kqRWallFunction;
        value           nonuniform List<scalar> 
20
(
0.00396171
0.00576138
0.00688038
0.00744031
0.00780715
0.00807308
0.00829022
0.00846512
0.00861543
0.00873792
0.00884852
0.00894673
0.00904668
0.00914808
0.00928346
0.00940949
0.00955852
0.00976599
0.0104445
0.00952494
)
;
    }
    fixedWalls
    {
        type            kqRWallFunction;
        value           nonuniform List<scalar> 
40
(
0.00396171
0.00154281
0.00167419
0.00177799
0.0018554
0.0018941
0.00193795
0.00196548
0.00197525
0.00197757
0.00197581
0.0019709
0.00195804
0.00192729
0.00188501
0.00184717
0.0017709
0.00166706
0.0015374
0.00396176
0.00952494
0.00780544
0.00635113
0.00553755
0.00502057
0.00460306
0.00420675
0.00376247
0.00318126
0.0021521
0.00222042
0.00323742
0.00378495
0.00422098
0.00460896
0.00502185
0.00553502
0.00634784
0.00779736
0.00951398
)
;
    }
    frontAndBack
    {
        type            empty;
    }
}


// ************************************************************************* //
