/*--------------------------------*- C++ -*----------------------------------*\
| =========                 |                                                 |
| \\      /  F ield         | OpenFOAM: The Open Source CFD Toolbox           |
|  \\    /   O peration     | Version:  4.1                                   |
|   \\  /    A nd           | Web:      www.OpenFOAM.org                      |
|    \\/     M anipulation  |                                                 |
\*---------------------------------------------------------------------------*/
FoamFile
{
    version     2.0;
    format      ascii;
    class       volScalarField;
    location    "8.5";
    object      nut;
}
// * * * * * * * * * * * * * * * * * * * * * * * * * * * * * * * * * * * * * //

dimensions      [0 2 -1 0 0 0 0];

internalField   nonuniform List<scalar> 
400
(
3.53365e-05
4.26132e-05
4.65679e-05
4.84256e-05
4.9605e-05
5.04427e-05
5.11167e-05
5.16531e-05
5.21097e-05
5.24789e-05
5.281e-05
5.31023e-05
5.33981e-05
5.36965e-05
5.40924e-05
5.44584e-05
5.4888e-05
5.54805e-05
5.73756e-05
5.47916e-05
2.20516e-05
3.13866e-05
3.94342e-05
4.21635e-05
4.26344e-05
4.3127e-05
4.4007e-05
4.54412e-05
4.7408e-05
4.97476e-05
5.22847e-05
5.45487e-05
5.64825e-05
5.75469e-05
5.73261e-05
5.52294e-05
5.11729e-05
4.74775e-05
4.97713e-05
4.96e-05
2.29713e-05
4.27805e-05
6.73493e-05
8.32908e-05
8.97946e-05
9.62826e-05
0.000101152
0.000105577
0.000110275
0.000114335
0.000117186
0.000117292
0.000115616
0.000108411
0.000101005
8.71789e-05
6.68376e-05
5.1622e-05
4.49024e-05
4.47414e-05
2.36725e-05
5.01317e-05
7.88658e-05
9.94232e-05
0.000117485
0.000135761
0.000149603
0.00016073
0.000168697
0.000173011
0.000173441
0.000169328
0.000162724
0.00015151
0.000133244
0.000109991
8.05305e-05
5.81413e-05
4.43681e-05
4.17776e-05
2.41822e-05
6.61449e-05
9.91264e-05
0.000115932
0.000132987
0.000148788
0.000164448
0.000177903
0.000187078
0.000191542
0.000191446
0.000187485
0.000178172
0.00016348
0.00014233
0.000115619
8.52145e-05
6.08094e-05
4.54778e-05
3.97797e-05
2.44329e-05
7.87258e-05
0.000101017
0.000115237
0.000130822
0.000147038
0.00016144
0.000172817
0.000181964
0.000186088
0.000185523
0.00017933
0.000168026
0.000151541
0.000128651
0.000102206
7.62079e-05
5.44201e-05
4.20227e-05
3.80897e-05
2.4714e-05
8.45615e-05
9.96962e-05
0.00010793
0.000123553
0.0001388
0.000151795
0.000160188
0.000163335
0.000162768
0.000157754
0.000148292
0.000134371
0.000115709
8.90936e-05
7.30524e-05
5.59985e-05
4.53443e-05
3.88706e-05
3.6413e-05
2.48886e-05
9.14068e-05
9.827e-05
0.0001004
0.000108512
0.000116983
0.000122225
0.000124144
0.000123851
0.000117799
0.000108826
9.69926e-05
8.34716e-05
6.83003e-05
5.98771e-05
5.32822e-05
4.39559e-05
3.96724e-05
3.63817e-05
3.44366e-05
2.49503e-05
9.45722e-05
8.12329e-05
7.57745e-05
7.53437e-05
7.61543e-05
7.52276e-05
7.34324e-05
6.9011e-05
6.26709e-05
5.67357e-05
5.10872e-05
4.69591e-05
4.3309e-05
4.01693e-05
3.81251e-05
3.66308e-05
3.72834e-05
3.55405e-05
3.16649e-05
2.49649e-05
9.9417e-05
7.50396e-05
6.10451e-05
5.41395e-05
5.04045e-05
4.7279e-05
4.41578e-05
4.15829e-05
4.00037e-05
3.87053e-05
3.80158e-05
3.75734e-05
3.73937e-05
3.74103e-05
3.77278e-05
3.7685e-05
3.56111e-05
3.43818e-05
2.60439e-05
2.49537e-05
9.91875e-05
7.51915e-05
6.14375e-05
5.47425e-05
5.11896e-05
4.80205e-05
4.49408e-05
4.23284e-05
4.05361e-05
3.9141e-05
3.82639e-05
3.77407e-05
3.74221e-05
3.73423e-05
3.76744e-05
3.77161e-05
3.5757e-05
3.45785e-05
2.64556e-05
2.49227e-05
9.41682e-05
8.09566e-05
7.54606e-05
7.51421e-05
7.69928e-05
7.64559e-05
7.48049e-05
7.16185e-05
6.49575e-05
5.90916e-05
5.29273e-05
4.84531e-05
4.46817e-05
4.06316e-05
3.85907e-05
3.63583e-05
3.72021e-05
3.54321e-05
3.19443e-05
2.48413e-05
9.04476e-05
9.68244e-05
9.92793e-05
0.000107586
0.000116592
0.000122821
0.000125363
0.000125553
0.00012054
0.000112203
0.000100509
8.68584e-05
7.09858e-05
6.15489e-05
5.47566e-05
4.47167e-05
3.99754e-05
3.6506e-05
3.45397e-05
2.46456e-05
8.35982e-05
9.86142e-05
0.000106159
0.000121904
0.000137391
0.000150901
0.000160075
0.000163814
0.00016403
0.000159596
0.000150567
0.000136972
0.00011844
9.15764e-05
7.4503e-05
5.68576e-05
4.56335e-05
3.88986e-05
3.64748e-05
2.43739e-05
7.78475e-05
9.97298e-05
0.000113423
0.000129023
0.000145493
0.000160315
0.000172128
0.000181463
0.000186075
0.00018599
0.000180198
0.000169192
0.000152849
0.000130137
0.00010373
7.73301e-05
5.50396e-05
4.21593e-05
3.81142e-05
2.41283e-05
6.51867e-05
9.78229e-05
0.00011422
0.000131169
0.00014694
0.000162724
0.000176409
0.000185976
0.000190793
0.000191004
0.000187309
0.00017818
0.000163729
0.000142613
0.000115857
8.52375e-05
6.05953e-05
4.53554e-05
3.97848e-05
2.36251e-05
4.94376e-05
7.77766e-05
9.7757e-05
0.000115394
0.000133679
0.00014766
0.000158986
0.000167167
0.000171714
0.000172394
0.000168546
0.000161854
0.000151021
0.000132694
0.000109661
8.01704e-05
5.78033e-05
4.41514e-05
4.1768e-05
2.29221e-05
4.23723e-05
6.65394e-05
8.26055e-05
8.89528e-05
9.5273e-05
0.0001001
0.000104359
0.000108933
0.000112927
0.000115795
0.00011598
0.000114375
0.00010742
0.000100029
8.63017e-05
6.61954e-05
5.11003e-05
4.46925e-05
4.47298e-05
2.20128e-05
3.11625e-05
3.90724e-05
4.18129e-05
4.22702e-05
4.27021e-05
4.35122e-05
4.48483e-05
4.67103e-05
4.89453e-05
5.13968e-05
5.36097e-05
5.55128e-05
5.66114e-05
5.64214e-05
5.44141e-05
5.05257e-05
4.70773e-05
4.96678e-05
4.95742e-05
3.53367e-05
4.26288e-05
4.65785e-05
4.84222e-05
4.95863e-05
5.04111e-05
5.10728e-05
5.16013e-05
5.20501e-05
5.24161e-05
5.27424e-05
5.3035e-05
5.3329e-05
5.3631e-05
5.40292e-05
5.43975e-05
5.48313e-05
5.54274e-05
5.73324e-05
5.47599e-05
)
;

boundaryField
{
    movingWall
    {
        type            nutkWallFunction;
        Cmu             0.09;
        kappa           0.41;
        E               9.8;
        value           nonuniform List<scalar> 
20
(
0
0
0
1.91358e-07
3.84452e-07
5.20841e-07
6.30011e-07
7.17041e-07
7.90842e-07
8.50946e-07
9.04484e-07
9.52445e-07
1.00061e-06
1.05003e-06
1.11512e-06
1.17526e-06
1.24603e-06
1.34313e-06
1.65239e-06
1.23435e-06
)
;
    }
    movingWallBottom
    {
        type            nutkWallFunction;
        Cmu             0.09;
        kappa           0.41;
        E               9.8;
        value           nonuniform List<scalar> 
20
(
0
0
0
1.91902e-07
3.87523e-07
5.26037e-07
6.37202e-07
7.25522e-07
8.00592e-07
8.6121e-07
9.15522e-07
9.63427e-07
1.01187e-06
1.0607e-06
1.12541e-06
1.18516e-06
1.25523e-06
1.35173e-06
1.65935e-06
1.23949e-06
)
;
    }
    fixedWalls
    {
        type            nutkWallFunction;
        Cmu             0.09;
        kappa           0.41;
        E               9.8;
        value           nonuniform List<scalar> 
40
(
0
0
0
0
0
0
0
0
0
0
0
0
0
0
0
0
0
0
0
0
1.23949e-06
3.86625e-07
0
0
0
0
0
0
0
0
0
0
0
0
0
0
0
0
3.82369e-07
1.23435e-06
)
;
    }
    frontAndBack
    {
        type            empty;
    }
}


// ************************************************************************* //
