/*--------------------------------*- C++ -*----------------------------------*\
| =========                 |                                                 |
| \\      /  F ield         | OpenFOAM: The Open Source CFD Toolbox           |
|  \\    /   O peration     | Version:  4.1                                   |
|   \\  /    A nd           | Web:      www.OpenFOAM.org                      |
|    \\/     M anipulation  |                                                 |
\*---------------------------------------------------------------------------*/
FoamFile
{
    version     2.0;
    format      ascii;
    class       volScalarField;
    location    "8.5";
    object      p;
}
// * * * * * * * * * * * * * * * * * * * * * * * * * * * * * * * * * * * * * //

dimensions      [0 2 -2 0 0 0 0];

internalField   nonuniform List<scalar> 
400
(
2.6994e-08
0.000388802
-0.00359694
-0.0074401
-0.0107559
-0.0135828
-0.0159637
-0.0179054
-0.0194284
-0.02057
-0.0213721
-0.0218387
-0.021923
-0.0215021
-0.0203669
-0.0181028
-0.0133481
-0.0049629
0.0081187
0.0286857
-0.00602185
-0.00554255
-0.00728
-0.00978291
-0.0125017
-0.0150345
-0.0171987
-0.0189496
-0.0203148
-0.0213451
-0.0220866
-0.0225506
-0.0227108
-0.0224578
-0.0215453
-0.0196136
-0.016341
-0.0107144
-0.00257669
0.0162592
-0.00679369
-0.00724768
-0.00894044
-0.0112743
-0.0137554
-0.0160168
-0.0179085
-0.0194263
-0.0206204
-0.021538
-0.0222125
-0.0226381
-0.0228008
-0.0226006
-0.0220209
-0.0206723
-0.0185229
-0.0148189
-0.0110116
-6.74903e-05
-0.00812095
-0.00902196
-0.0107755
-0.0130476
-0.0153036
-0.0172749
-0.0188852
-0.0201612
-0.0211601
-0.0219283
-0.022495
-0.0228666
-0.0230298
-0.0229174
-0.0224696
-0.021493
-0.0200585
-0.017257
-0.0158675
-0.00950315
-0.00855227
-0.00983817
-0.0116897
-0.0139532
-0.0161194
-0.0179709
-0.0194559
-0.0206075
-0.021489
-0.0221562
-0.0226453
-0.0229679
-0.023111
-0.0230232
-0.0226439
-0.021863
-0.0208091
-0.0182298
-0.0173046
-0.0123664
-0.00777337
-0.00949037
-0.0115546
-0.0139603
-0.0162129
-0.0181123
-0.0196165
-0.0207607
-0.0216113
-0.022231
-0.0226663
-0.0229343
-0.0230236
-0.0228854
-0.0224543
-0.021653
-0.0204316
-0.0179303
-0.0157686
-0.0109272
-0.0058421
-0.00787602
-0.0102738
-0.012973
-0.0155101
-0.0176408
-0.0193093
-0.0205545
-0.0214542
-0.0220758
-0.0224725
-0.022671
-0.0226582
-0.0223812
-0.0217862
-0.0207286
-0.0188922
-0.0157579
-0.0118676
-0.00672234
-0.00300729
-0.0053656
-0.0081154
-0.0111939
-0.0141356
-0.0166216
-0.0185644
-0.0199931
-0.0209923
-0.0216401
-0.0220002
-0.0221015
-0.0219342
-0.0214565
-0.0205534
-0.0189223
-0.0160555
-0.0115597
-0.00579825
-0.000496497
-8.3794e-05
-0.00260565
-0.0056102
-0.00901452
-0.0123414
-0.0152155
-0.0174941
-0.0191655
-0.0203105
-0.0210215
-0.021367
-0.0213764
-0.0210528
-0.0203213
-0.0189282
-0.0164041
-0.0121677
-0.00592586
0.00185548
0.00628789
0.0018303
-0.000766541
-0.00390441
-0.00753122
-0.0111064
-0.014182
-0.016636
-0.0184677
-0.0197439
-0.0205317
-0.0208819
-0.0208213
-0.0203631
-0.0193786
-0.0175112
-0.0141545
-0.00870357
-0.0011209
0.00717103
0.0112214
0.0017778
-0.000810583
-0.0039434
-0.00757111
-0.0111536
-0.0142333
-0.0166901
-0.0185238
-0.0197994
-0.0205867
-0.0209398
-0.0208887
-0.020433
-0.0194499
-0.0175994
-0.0142742
-0.00887108
-0.00134704
0.00689834
0.0109589
-0.000196673
-0.00269753
-0.0056884
-0.00909326
-0.0124309
-0.0153188
-0.0176143
-0.0193009
-0.0204582
-0.0211747
-0.0215195
-0.021526
-0.0211997
-0.0204717
-0.0191004
-0.0166262
-0.0124761
-0.00635722
0.00126991
0.00572849
-0.00312327
-0.00545366
-0.00818756
-0.0112685
-0.014227
-0.0167387
-0.0187078
-0.0201563
-0.0211701
-0.0218246
-0.0221835
-0.0222795
-0.0221047
-0.0216198
-0.0207174
-0.0191137
-0.0163166
-0.0119311
-0.00633217
-0.00107305
-0.00592542
-0.00793604
-0.0103241
-0.0130341
-0.0155963
-0.0177577
-0.0194547
-0.0207208
-0.0216325
-0.0222575
-0.0226501
-0.0228377
-0.0228099
-0.0225203
-0.0219159
-0.0208639
-0.0190673
-0.0159975
-0.0122346
-0.00716999
-0.00781351
-0.00951159
-0.0115739
-0.0139978
-0.016281
-0.0182148
-0.0197501
-0.0209171
-0.0217802
-0.0224026
-0.022832
-0.0230868
-0.0231583
-0.0230016
-0.0225538
-0.0217417
-0.0205319
-0.018045
-0.015985
-0.0112086
-0.00855071
-0.00982243
-0.0116771
-0.0139599
-0.0161594
-0.0180489
-0.0195684
-0.0207458
-0.0216419
-0.0223128
-0.0227962
-0.0231052
-0.0232297
-0.0231197
-0.0227186
-0.0219193
-0.0208493
-0.0182675
-0.0174144
-0.0124909
-0.00808962
-0.00897861
-0.0107337
-0.0130245
-0.0153142
-0.0173249
-0.0189717
-0.0202757
-0.0212917
-0.0220662
-0.0226296
-0.0229892
-0.0231344
-0.0229967
-0.0225228
-0.0215186
-0.0200588
-0.01725
-0.0158719
-0.00952207
-0.00675103
-0.00718889
-0.00888093
-0.0112298
-0.0137395
-0.0160378
-0.0179664
-0.0195144
-0.0207291
-0.0216562
-0.0223299
-0.022745
-0.0228894
-0.0226648
-0.0220578
-0.0206765
-0.0184963
-0.0147737
-0.0109493
-6.89477e-06
-0.00598553
-0.00548505
-0.00721041
-0.00972045
-0.012462
-0.0150283
-0.0172297
-0.0190146
-0.0204056
-0.0214504
-0.0221953
-0.022652
-0.0227959
-0.0225177
-0.0215706
-0.0196011
-0.0162914
-0.0106344
-0.00246548
0.0163745
2.15772e-05
0.000427806
-0.00353648
-0.00738032
-0.0107157
-0.0135747
-0.0159922
-0.0179681
-0.0195171
-0.0206735
-0.0214782
-0.0219363
-0.0220019
-0.0215543
-0.0203846
-0.018081
-0.0132821
-0.00485841
0.00825439
0.0288356
)
;

boundaryField
{
    movingWall
    {
        type            zeroGradient;
    }
    movingWallBottom
    {
        type            zeroGradient;
    }
    fixedWalls
    {
        type            zeroGradient;
    }
    frontAndBack
    {
        type            empty;
    }
}


// ************************************************************************* //
