/*--------------------------------*- C++ -*----------------------------------*\
| =========                 |                                                 |
| \\      /  F ield         | OpenFOAM: The Open Source CFD Toolbox           |
|  \\    /   O peration     | Version:  4.1                                   |
|   \\  /    A nd           | Web:      www.OpenFOAM.org                      |
|    \\/     M anipulation  |                                                 |
\*---------------------------------------------------------------------------*/
FoamFile
{
    version     2.0;
    format      ascii;
    class       surfaceScalarField;
    location    "8.5";
    object      phi;
}
// * * * * * * * * * * * * * * * * * * * * * * * * * * * * * * * * * * * * * //

dimensions      [0 3 -1 0 0 0 0];

internalField   nonuniform List<scalar> 
760
(
3.20965e-06
-3.20965e-06
5.41638e-06
-2.20673e-06
7.1198e-06
-1.70342e-06
8.55165e-06
-1.43184e-06
9.74995e-06
-1.1983e-06
1.07347e-05
-9.84708e-07
1.15363e-05
-8.01621e-07
1.21933e-05
-6.57028e-07
1.27377e-05
-5.44434e-07
1.31924e-05
-4.54683e-07
1.35692e-05
-3.76734e-07
1.38691e-05
-2.99924e-07
1.40898e-05
-2.20725e-07
1.41968e-05
-1.0697e-07
1.41912e-05
5.58736e-09
1.38436e-05
3.47603e-07
1.31164e-05
7.27214e-07
1.12251e-05
1.89124e-06
7.72628e-06
3.49885e-06
7.72628e-06
1.01428e-06
-4.22393e-06
2.50676e-06
-3.69921e-06
3.89444e-06
-3.0911e-06
4.99055e-06
-2.52795e-06
5.81456e-06
-2.02232e-06
6.4248e-06
-1.59495e-06
6.87397e-06
-1.25078e-06
7.20015e-06
-9.83214e-07
7.4361e-06
-7.80378e-07
7.60221e-06
-6.20798e-07
7.71817e-06
-4.92692e-07
7.78602e-06
-3.67775e-07
7.8068e-06
-2.41502e-07
7.71571e-06
-1.58856e-08
7.5293e-06
1.92004e-07
7.18135e-06
6.95554e-07
6.52465e-06
1.38391e-06
5.3451e-06
3.07079e-06
2.92898e-06
5.91498e-06
1.06553e-05
9.35744e-07
-5.15968e-06
2.07839e-06
-4.84186e-06
3.03208e-06
-4.04479e-06
3.74319e-06
-3.23905e-06
4.24278e-06
-2.52191e-06
4.57457e-06
-1.92674e-06
4.77882e-06
-1.45503e-06
4.89082e-06
-1.09521e-06
4.9366e-06
-8.26166e-07
4.937e-06
-6.21199e-07
4.89926e-06
-4.54947e-07
4.82884e-06
-2.97359e-07
4.71096e-06
-1.2362e-07
4.56922e-06
1.25859e-07
4.28965e-06
4.71571e-07
3.90248e-06
1.08272e-06
3.23539e-06
2.051e-06
2.3986e-06
3.90758e-06
1.08762e-06
7.22596e-06
1.17429e-05
6.95864e-07
-5.85554e-06
1.3494e-06
-5.4954e-06
1.91925e-06
-4.61464e-06
2.35539e-06
-3.67519e-06
2.65488e-06
-2.8214e-06
2.84076e-06
-2.11262e-06
2.94271e-06
-1.55698e-06
2.98556e-06
-1.13806e-06
2.98659e-06
-8.27201e-07
2.95734e-06
-5.91947e-07
2.90193e-06
-3.99534e-07
2.81976e-06
-2.1519e-07
2.70106e-06
-4.91913e-09
2.54001e-06
2.86909e-07
2.30749e-06
7.04097e-07
2.00608e-06
1.38413e-06
1.53816e-06
2.51892e-06
1.00458e-06
4.44116e-06
3.99884e-07
7.83066e-06
1.21428e-05
3.34681e-07
-6.19022e-06
5.2473e-07
-5.68545e-06
7.17257e-07
-4.80717e-06
8.81466e-07
-3.8394e-06
9.95977e-07
-2.93591e-06
1.06443e-06
-2.18107e-06
1.09765e-06
-1.5902e-06
1.10579e-06
-1.1462e-06
1.09569e-06
-8.17103e-07
1.07131e-06
-5.67564e-07
1.03297e-06
-3.61192e-07
9.78321e-07
-1.60543e-07
9.00724e-07
7.26781e-08
7.96015e-07
3.91619e-07
6.52989e-07
8.47123e-07
4.71865e-07
1.56525e-06
3.00861e-07
2.68993e-06
-1.03763e-07
4.84578e-06
-1.94521e-07
7.92142e-06
1.19482e-05
-2.24722e-07
-5.9655e-06
-4.27254e-07
-5.48291e-06
-5.71126e-07
-4.66329e-06
-6.73416e-07
-3.73711e-06
-7.52397e-07
-2.85693e-06
-8.11998e-07
-2.12147e-06
-8.54717e-07
-1.54748e-06
-8.83684e-07
-1.11723e-06
-9.03206e-07
-7.97581e-07
-9.16875e-07
-5.53895e-07
-9.2905e-07
-3.49017e-07
-9.44198e-07
-1.45394e-07
-9.66773e-07
9.52527e-08
-9.94202e-07
4.19048e-07
-1.02546e-06
8.78382e-07
-1.04832e-06
1.58811e-06
-1.07006e-06
2.71166e-06
-1.00141e-06
4.77713e-06
-8.80493e-07
7.8005e-06
1.10677e-05
-7.25602e-07
-5.2399e-06
-1.41655e-06
-4.79197e-06
-1.93865e-06
-4.14119e-06
-2.33575e-06
-3.34002e-06
-2.62446e-06
-2.56822e-06
-2.82667e-06
-1.91926e-06
-2.96343e-06
-1.41072e-06
-3.05081e-06
-1.02985e-06
-3.10259e-06
-7.45808e-07
-3.1282e-06
-5.28282e-07
-3.13542e-06
-3.41795e-07
-3.13112e-06
-1.49692e-07
-3.11908e-06
8.32092e-08
-3.08483e-06
3.84798e-07
-3.0251e-06
8.18652e-07
-2.92365e-06
1.48665e-06
-2.77599e-06
2.56401e-06
-2.40654e-06
4.40769e-06
-1.76341e-06
7.15737e-06
9.30433e-06
-1.30326e-06
-3.93664e-06
-2.47898e-06
-3.61625e-06
-3.42536e-06
-3.19481e-06
-4.15631e-06
-2.60907e-06
-4.69622e-06
-2.02831e-06
-5.08168e-06
-1.53379e-06
-5.35414e-06
-1.13827e-06
-5.54617e-06
-8.37817e-07
-5.68119e-06
-6.10783e-07
-5.77603e-06
-4.33447e-07
-5.84193e-06
-2.75895e-07
-5.88663e-06
-1.04991e-07
-5.90131e-06
9.78869e-08
-5.8624e-06
3.45886e-07
-5.74148e-06
6.97729e-07
-5.49482e-06
1.24e-06
-5.05039e-06
2.11957e-06
-4.18127e-06
3.53857e-06
-2.49932e-06
5.47543e-06
6.80501e-06
-1.82416e-06
-2.11247e-06
-3.50215e-06
-1.93827e-06
-4.95719e-06
-1.73977e-06
-6.13558e-06
-1.43067e-06
-7.04016e-06
-1.12373e-06
-7.71104e-06
-8.62917e-07
-8.19971e-06
-6.49599e-07
-8.55929e-06
-4.78242e-07
-8.82763e-06
-3.42439e-07
-9.02677e-06
-2.34309e-07
-9.16538e-06
-1.37285e-07
-9.23878e-06
-3.15907e-08
-9.22215e-06
8.1264e-08
-9.09177e-06
2.15504e-07
-8.79718e-06
4.03134e-07
-8.24929e-06
6.92112e-07
-7.29954e-06
1.16982e-06
-5.7019e-06
1.94093e-06
-3.28952e-06
3.06305e-06
3.51549e-06
-2.16731e-06
5.48383e-08
-4.15879e-06
5.32143e-08
-5.95729e-06
5.87231e-08
-7.45254e-06
6.45842e-08
-8.64232e-06
6.60392e-08
-9.57073e-06
6.54948e-08
-1.02787e-05
5.83655e-08
-1.08069e-05
4.99326e-08
-1.11878e-05
3.85131e-08
-1.14491e-05
2.69612e-08
-1.16021e-05
1.5711e-08
-1.16367e-05
3.06757e-09
-1.15473e-05
-8.19635e-09
-1.13138e-05
-1.793e-08
-1.08805e-05
-3.01776e-08
-1.01447e-05
-4.37165e-08
-8.91124e-06
-6.36442e-08
-6.87873e-06
-9.15922e-08
-3.68522e-06
-1.30462e-07
-1.69731e-07
-2.15068e-06
2.20552e-06
-4.12901e-06
2.03155e-06
-5.91442e-06
1.84413e-06
-7.39787e-06
1.54803e-06
-8.57592e-06
1.24409e-06
-9.48936e-06
9.7893e-07
-1.01854e-05
7.54413e-07
-1.07045e-05
5.69046e-07
-1.10802e-05
4.14177e-07
-1.13391e-05
2.8585e-07
-1.14906e-05
1.67231e-07
-1.15252e-05
3.76413e-08
-1.14383e-05
-9.50959e-08
-1.1208e-05
-2.48229e-07
-1.07807e-05
-4.57459e-07
-1.0053e-05
-7.71381e-07
-8.83165e-06
-1.28501e-06
-6.81521e-06
-2.10804e-06
-3.6467e-06
-3.29897e-06
-3.81643e-06
-1.79621e-06
4.00172e-06
-3.45209e-06
3.68743e-06
-4.88707e-06
3.27911e-06
-6.04606e-06
2.70703e-06
-6.93233e-06
2.13036e-06
-7.58171e-06
1.62831e-06
-8.04745e-06
1.22015e-06
-8.38201e-06
9.03607e-07
-8.62611e-06
6.58279e-07
-8.80419e-06
4.63923e-07
-8.92698e-06
2.90025e-07
-8.99383e-06
1.04487e-07
-8.97858e-06
-1.10338e-07
-8.85401e-06
-3.72798e-07
-8.57305e-06
-7.38425e-07
-8.04706e-06
-1.29737e-06
-7.13141e-06
-2.20066e-06
-5.57893e-06
-3.66053e-06
-3.22112e-06
-5.65677e-06
-7.03755e-06
-1.27775e-06
5.27948e-06
-2.43669e-06
4.84637e-06
-3.36989e-06
4.21231e-06
-4.08669e-06
3.42383e-06
-4.60991e-06
2.65359e-06
-4.97723e-06
1.99563e-06
-5.22994e-06
1.47286e-06
-5.40149e-06
1.07515e-06
-5.51699e-06
7.73778e-07
-5.59328e-06
5.40213e-07
-5.6424e-06
3.39153e-07
-5.67347e-06
1.35555e-07
-5.67854e-06
-1.05276e-07
-5.63562e-06
-4.1571e-07
-5.51808e-06
-8.55966e-07
-5.28463e-06
-1.53082e-06
-4.86943e-06
-2.61585e-06
-4.05186e-06
-4.4781e-06
-2.4392e-06
-7.26944e-06
-9.47675e-06
-7.06012e-07
5.98549e-06
-1.38257e-06
5.52293e-06
-1.89225e-06
4.72198e-06
-2.27647e-06
3.80806e-06
-2.55136e-06
2.92847e-06
-2.7401e-06
2.18438e-06
-2.86413e-06
1.59689e-06
-2.93994e-06
1.15096e-06
-2.98196e-06
8.15794e-07
-2.9996e-06
5.57852e-07
-3.00079e-06
3.40341e-07
-2.99215e-06
1.26922e-07
-2.9758e-06
-1.21631e-07
-2.94025e-06
-4.5126e-07
-2.88065e-06
-9.15567e-07
-2.7817e-06
-1.62977e-06
-2.64173e-06
-2.75583e-06
-2.29026e-06
-4.82956e-06
-1.70127e-06
-7.85843e-06
-1.1178e-05
-2.08658e-07
6.19415e-06
-3.98514e-07
5.71278e-06
-5.31169e-07
4.85464e-06
-6.20709e-07
3.8976e-06
-6.87412e-07
2.99517e-06
-7.36379e-07
2.23334e-06
-7.70346e-07
1.63086e-06
-7.92604e-07
1.17322e-06
-8.07438e-07
8.30628e-07
-8.18337e-07
5.68752e-07
-8.29626e-07
3.5163e-07
-8.45181e-07
1.42477e-07
-8.69176e-07
-9.76357e-08
-8.99413e-07
-4.21023e-07
-9.35039e-07
-8.79941e-07
-9.64427e-07
-1.60038e-06
-9.89284e-07
-2.73097e-06
-9.37336e-07
-4.88151e-06
-8.40893e-07
-7.95488e-06
-1.20189e-05
3.46623e-07
5.84752e-06
5.4838e-07
5.51103e-06
7.5302e-07
4.65e-06
9.29452e-07
3.72116e-06
1.05552e-06
2.8691e-06
1.13375e-06
2.15511e-06
1.17435e-06
1.59026e-06
1.18731e-06
1.16026e-06
1.17963e-06
8.38305e-07
1.15553e-06
5.9286e-07
1.11547e-06
3.91686e-07
1.05786e-06
2.00091e-07
9.76017e-07
-1.57967e-08
8.66549e-07
-3.11555e-07
7.18257e-07
-7.31649e-07
5.32062e-07
-1.41418e-06
3.47953e-07
-2.54686e-06
-7.17767e-08
-4.46178e-06
-1.57123e-07
-7.86953e-06
-1.2176e-05
7.01991e-07
5.14553e-06
1.3668e-06
4.84622e-06
1.94846e-06
4.06834e-06
2.39826e-06
3.27136e-06
2.71083e-06
2.55654e-06
2.90736e-06
1.95858e-06
3.01685e-06
1.48076e-06
3.06406e-06
1.11306e-06
3.06648e-06
8.35886e-07
3.0361e-06
6.23241e-07
2.97738e-06
4.50404e-07
2.89045e-06
2.87027e-07
2.76496e-06
1.09697e-07
2.59767e-06
-1.44272e-07
2.35719e-06
-4.9117e-07
2.0469e-06
-1.10389e-06
1.56997e-06
-2.06993e-06
1.03582e-06
-3.92763e-06
4.12318e-07
-7.24603e-06
-1.17637e-05
9.35354e-07
4.21018e-06
2.08536e-06
3.69621e-06
3.05187e-06
3.10183e-06
3.77708e-06
2.54614e-06
4.29046e-06
2.04316e-06
4.63434e-06
1.6147e-06
4.84766e-06
1.26744e-06
4.9653e-06
9.95417e-07
5.01308e-06
7.88103e-07
5.01235e-06
6.2397e-07
4.97055e-06
4.92207e-07
4.89412e-06
3.63453e-07
4.76916e-06
2.34655e-07
4.62029e-06
4.60354e-09
4.33039e-06
-2.0127e-07
3.9346e-06
-7.08104e-07
3.25967e-06
-1.39499e-06
2.41589e-06
-3.08385e-06
1.09601e-06
-5.92615e-06
-1.06677e-05
1.00752e-06
3.20266e-06
2.50134e-06
2.20239e-06
3.89774e-06
1.70542e-06
5.0056e-06
1.43829e-06
5.84248e-06
1.20628e-06
6.46461e-06
9.92573e-07
6.92339e-06
8.08664e-07
7.25647e-06
6.62335e-07
7.49624e-06
5.48332e-07
7.66354e-06
4.56669e-07
7.77801e-06
3.77738e-07
7.84245e-06
2.99017e-07
7.85766e-06
2.19444e-07
7.7583e-06
1.03961e-07
7.56502e-06
-7.99097e-09
7.20987e-06
-3.52957e-07
6.54614e-06
-7.31258e-07
5.35936e-06
-1.89707e-06
2.93688e-06
-3.50367e-06
-7.73083e-06
3.20266e-06
5.40506e-06
7.11048e-06
8.54877e-06
9.75505e-06
1.07476e-05
1.15563e-05
1.22186e-05
1.2767e-05
1.32236e-05
1.36014e-05
1.39004e-05
1.41198e-05
1.42238e-05
1.42158e-05
1.38628e-05
1.31316e-05
1.12345e-05
7.73083e-06
)
;

boundaryField
{
    movingWall
    {
        type            calculated;
        value           uniform 0;
    }
    movingWallBottom
    {
        type            calculated;
        value           uniform 0;
    }
    fixedWalls
    {
        type            calculated;
        value           uniform 0;
    }
    frontAndBack
    {
        type            empty;
        value           nonuniform 0();
    }
}


// ************************************************************************* //
