/*--------------------------------*- C++ -*----------------------------------*\
| =========                 |                                                 |
| \\      /  F ield         | OpenFOAM: The Open Source CFD Toolbox           |
|  \\    /   O peration     | Version:  4.1                                   |
|   \\  /    A nd           | Web:      www.OpenFOAM.org                      |
|    \\/     M anipulation  |                                                 |
\*---------------------------------------------------------------------------*/
FoamFile
{
    version     2.0;
    format      ascii;
    class       volVectorField;
    location    "8.5";
    object      U;
}
// * * * * * * * * * * * * * * * * * * * * * * * * * * * * * * * * * * * * * //

dimensions      [0 1 -1 0 0 0 0];

internalField   nonuniform List<vector> 
400
(
(0.0636466 -0.0988442 0)
(0.0774265 -0.0639594 0)
(0.123499 -0.0435162 0)
(0.157999 -0.0339655 0)
(0.184489 -0.0280543 0)
(0.205997 -0.0236239 0)
(0.223469 -0.0200007 0)
(0.238224 -0.0171005 0)
(0.249948 -0.0146513 0)
(0.260053 -0.0127034 0)
(0.267694 -0.0108753 0)
(0.274531 -0.00938655 0)
(0.278871 -0.00764418 0)
(0.282495 -0.00610193 0)
(0.282715 -0.0036809 0)
(0.279465 -0.000518267 0)
(0.26907 0.00136261 0)
(0.25032 0.0117008 0)
(0.188774 0.0225132 0)
(0.172546 0.11743 0)
(0.0155163 -0.0513304 0)
(0.0309048 -0.042003 0)
(0.0638693 -0.0367692 0)
(0.0885504 -0.0315697 0)
(0.1081 -0.0261746 0)
(0.122893 -0.0210819 0)
(0.133673 -0.016695 0)
(0.141551 -0.0132164 0)
(0.146929 -0.0106437 0)
(0.150935 -0.00858696 0)
(0.153257 -0.00697911 0)
(0.155247 -0.00515747 0)
(0.155353 -0.0035213 0)
(0.155402 5.34991e-06 0)
(0.151133 0.0030374 0)
(0.147964 0.0113743 0)
(0.133594 0.0213869 0)
(0.126471 0.050123 0)
(0.065106 0.0939419 0)
(0.0899657 0.164445 0)
(0.0110128 -0.100848 0)
(0.0292337 -0.0929972 0)
(0.05102 -0.0786318 0)
(0.0676029 -0.0645282 0)
(0.0800712 -0.0510982 0)
(0.0887751 -0.0395155 0)
(0.0941905 -0.0302778 0)
(0.0972445 -0.0232359 0)
(0.0986399 -0.0179637 0)
(0.0989983 -0.0139258 0)
(0.0984543 -0.010666 0)
(0.0974467 -0.00767653 0)
(0.0952156 -0.00447244 0)
(0.0931279 -0.000107132 0)
(0.0876981 0.00597222 0)
(0.0836526 0.0174457 0)
(0.0684551 0.0349262 0)
(0.0674375 0.0723811 0)
(0.0126512 0.135572 0)
(0.0497025 0.222603 0)
(0.00703475 -0.11343 0)
(0.0204189 -0.106312 0)
(0.0317793 -0.0884756 0)
(0.0425625 -0.069897 0)
(0.05041 -0.0537512 0)
(0.0554548 -0.0405838 0)
(0.0583012 -0.0302291 0)
(0.059635 -0.0223613 0)
(0.0599617 -0.0164822 0)
(0.0596082 -0.0120194 0)
(0.0587071 -0.00839087 0)
(0.0573223 -0.00495525 0)
(0.0552226 -0.00107442 0)
(0.0525844 0.00439548 0)
(0.0482298 0.0120438 0)
(0.0443655 0.0248995 0)
(0.0322564 0.0462651 0)
(0.0367352 0.0853856 0)
(-0.0068883 0.154693 0)
(0.0320829 0.250408 0)
(0.00265302 -0.123337 0)
(0.00886854 -0.115001 0)
(0.0113736 -0.096826 0)
(0.0156186 -0.0772241 0)
(0.0188096 -0.0590224 0)
(0.0208354 -0.0438646 0)
(0.0218787 -0.0320475 0)
(0.0222502 -0.0231634 0)
(0.0221661 -0.0165817 0)
(0.0217764 -0.0116213 0)
(0.0211131 -0.00757446 0)
(0.0201622 -0.00367282 0)
(0.0188013 0.000846067 0)
(0.0170134 0.0069721 0)
(0.0144163 0.0157774 0)
(0.012184 0.0298688 0)
(0.00395008 0.0526467 0)
(0.0120802 0.0937281 0)
(-0.0195575 0.162274 0)
(0.0175038 0.251223 0)
(-0.00538091 -0.123855 0)
(-0.0059142 -0.113134 0)
(-0.0112498 -0.0959843 0)
(-0.0131339 -0.0768179 0)
(-0.0145416 -0.0587361 0)
(-0.0157081 -0.0436079 0)
(-0.0166275 -0.0317686 0)
(-0.0173272 -0.0229057 0)
(-0.0178124 -0.0163314 0)
(-0.0181671 -0.0113136 0)
(-0.0184527 -0.00712224 0)
(-0.0187501 -0.00299992 0)
(-0.0191867 0.00181719 0)
(-0.0197304 0.00829169 0)
(-0.020368 0.0176404 0)
(-0.0209216 0.0320678 0)
(-0.0239593 0.0546706 0)
(-0.0141172 0.0960698 0)
(-0.0327488 0.159403 0)
(0.00818343 0.237802 0)
(-0.0116395 -0.111844 0)
(-0.0216936 -0.103839 0)
(-0.0353576 -0.0891392 0)
(-0.044175 -0.0717082 0)
(-0.0503332 -0.0550126 0)
(-0.0548705 -0.0410036 0)
(-0.0580243 -0.0300311 0)
(-0.0602118 -0.0217823 0)
(-0.0615718 -0.0156717 0)
(-0.0623387 -0.0110205 0)
(-0.0626924 -0.00705486 0)
(-0.0627815 -0.00304902 0)
(-0.0626918 0.00175867 0)
(-0.0623377 0.00822003 0)
(-0.0618383 0.0170362 0)
(-0.0609803 0.030474 0)
(-0.059023 0.0527318 0)
(-0.0486755 0.0935389 0)
(-0.0505616 0.154363 0)
(-0.00670185 0.21081 0)
(-0.0198016 -0.0912191 0)
(-0.0383448 -0.0842997 0)
(-0.0612057 -0.073903 0)
(-0.0780797 -0.060049 0)
(-0.0897638 -0.0466035 0)
(-0.0985139 -0.0351117 0)
(-0.104603 -0.0259739 0)
(-0.109161 -0.0190923 0)
(-0.112322 -0.0138639 0)
(-0.114626 -0.00977471 0)
(-0.116276 -0.00622714 0)
(-0.117468 -0.00252754 0)
(-0.118268 0.00199962 0)
(-0.118582 0.0079339 0)
(-0.118088 0.0165596 0)
(-0.11524 0.0300244 0)
(-0.107786 0.0515941 0)
(-0.0911201 0.0870998 0)
(-0.0676339 0.135946 0)
(-0.0194285 0.170779 0)
(-0.0262727 -0.0591208 0)
(-0.0537185 -0.0551032 0)
(-0.0868866 -0.0490187 0)
(-0.114156 -0.0398047 0)
(-0.133585 -0.0307421 0)
(-0.148931 -0.0234032 0)
(-0.159589 -0.0175502 0)
(-0.167878 -0.0129431 0)
(-0.173875 -0.00934774 0)
(-0.17874 -0.00648513 0)
(-0.182109 -0.0038573 0)
(-0.184494 -0.00097712 0)
(-0.185785 0.00263064 0)
(-0.18551 0.00723298 0)
(-0.182443 0.0136318 0)
(-0.174667 0.0235017 0)
(-0.158361 0.0395329 0)
(-0.12924 0.0646407 0)
(-0.0805854 0.0978059 0)
(-0.0457349 0.113196 0)
(-0.0308982 -0.0202375 0)
(-0.0633159 -0.0186066 0)
(-0.103352 -0.0168084 0)
(-0.138354 -0.0140348 0)
(-0.163003 -0.0113412 0)
(-0.18371 -0.00854006 0)
(-0.199139 -0.00612412 0)
(-0.211411 -0.00425123 0)
(-0.220227 -0.00283135 0)
(-0.226766 -0.00171228 0)
(-0.230895 -0.000731802 0)
(-0.233064 0.000214103 0)
(-0.23367 0.00150949 0)
(-0.231871 0.00310245 0)
(-0.226582 0.00542455 0)
(-0.214493 0.00906434 0)
(-0.191784 0.0150795 0)
(-0.154069 0.02441 0)
(-0.0994449 0.0362799 0)
(-0.049796 0.0402248 0)
(-0.0306468 0.0222435 0)
(-0.0628557 0.0205956 0)
(-0.102605 0.0190112 0)
(-0.137377 0.0164525 0)
(-0.161854 0.0137871 0)
(-0.182191 0.0109671 0)
(-0.197396 0.0082926 0)
(-0.209442 0.00611243 0)
(-0.218083 0.00428317 0)
(-0.224582 0.0027311 0)
(-0.228659 0.00129912 0)
(-0.23098 -0.000141191 0)
(-0.231421 -0.00192903 0)
(-0.229738 -0.00395727 0)
(-0.224468 -0.0068454 0)
(-0.212587 -0.0111266 0)
(-0.190087 -0.0180754 0)
(-0.152731 -0.0286811 0)
(-0.0984471 -0.0421897 0)
(-0.0486189 -0.0478047 0)
(-0.0258769 0.0607058 0)
(-0.0529004 0.0567583 0)
(-0.0856622 0.0509053 0)
(-0.112596 0.041991 0)
(-0.131613 0.0330393 0)
(-0.146589 0.0255372 0)
(-0.156787 0.0194509 0)
(-0.164601 0.0145531 0)
(-0.170097 0.010575 0)
(-0.174467 0.00733982 0)
(-0.177454 0.00434125 0)
(-0.179594 0.00109622 0)
(-0.180816 -0.00282822 0)
(-0.180585 -0.00780049 0)
(-0.17772 -0.0145519 0)
(-0.170311 -0.0248452 0)
(-0.154604 -0.0414705 0)
(-0.126335 -0.0675045 0)
(-0.0791781 -0.10194 0)
(-0.0437421 -0.118185 0)
(-0.0194119 0.0922781 0)
(-0.0376023 0.0855434 0)
(-0.0602243 0.0754354 0)
(-0.0768693 0.0618284 0)
(-0.0882238 0.0484231 0)
(-0.0966444 0.0367834 0)
(-0.102325 0.0273868 0)
(-0.106468 0.0201767 0)
(-0.109244 0.0146183 0)
(-0.111139 0.0102161 0)
(-0.112438 0.00636117 0)
(-0.113312 0.00241306 0)
(-0.113876 -0.00231827 0)
(-0.113994 -0.0084093 0)
(-0.113438 -0.0171414 0)
(-0.110792 -0.0307525 0)
(-0.103781 -0.0525747 0)
(-0.0878526 -0.0886977 0)
(-0.0663685 -0.138637 0)
(-0.0182763 -0.174789 0)
(-0.0113465 0.112479 0)
(-0.0211042 0.104803 0)
(-0.0345534 0.0904543 0)
(-0.043152 0.0732552 0)
(-0.0490284 0.056571 0)
(-0.053286 0.0423813 0)
(-0.0561662 0.0311296 0)
(-0.0581014 0.0225544 0)
(-0.0592462 0.01611 0)
(-0.0598364 0.0111503 0)
(-0.0600489 0.00691284 0)
(-0.0600282 0.00269058 0)
(-0.0598571 -0.00228304 0)
(-0.0594327 -0.00887498 0)
(-0.0588871 -0.0178137 0)
(-0.0580257 -0.0313134 0)
(-0.0562824 -0.0535153 0)
(-0.0459384 -0.094325 0)
(-0.0490664 -0.155422 0)
(-0.00594006 -0.213261 0)
(-0.0051086 0.124121 0)
(-0.00543709 0.11382 0)
(-0.010561 0.0970414 0)
(-0.0122157 0.0781099 0)
(-0.0133737 0.060045 0)
(-0.0143047 0.0447596 0)
(-0.015022 0.0326633 0)
(-0.0155642 0.0234994 0)
(-0.0159311 0.016631 0)
(-0.0162133 0.0113485 0)
(-0.0164617 0.00692429 0)
(-0.016754 0.00261619 0)
(-0.0172094 -0.0023384 0)
(-0.0177913 -0.00891975 0)
(-0.0184958 -0.0183502 0)
(-0.019099 -0.0328832 0)
(-0.022379 -0.0556378 0)
(-0.0124759 -0.097082 0)
(-0.0317861 -0.160457 0)
(0.00857291 -0.239548 0)
(0.00279898 0.123338 0)
(0.00921839 0.115468 0)
(0.0119533 0.0976925 0)
(0.0164318 0.0783045 0)
(0.0198701 0.0601241 0)
(0.0221227 0.0448313 0)
(0.0233473 0.0327953 0)
(0.023844 0.0236597 0)
(0.0238357 0.0168285 0)
(0.0234708 0.0116379 0)
(0.0227913 0.00739257 0)
(0.0217938 0.00333119 0)
(0.020355 -0.00130312 0)
(0.0184836 -0.00752148 0)
(0.0157756 -0.0163897 0)
(0.0134373 -0.0305162 0)
(0.00499331 -0.053295 0)
(0.0132377 -0.0942296 0)
(-0.0189242 -0.162848 0)
(0.017818 -0.252247 0)
(0.00719349 0.113169 0)
(0.0206697 0.106499 0)
(0.0322241 0.0890842 0)
(0.0432511 0.0706964 0)
(0.0513815 0.0545765 0)
(0.0566789 0.0413265 0)
(0.059719 0.0308201 0)
(0.0611772 0.0227642 0)
(0.0615614 0.016691 0)
(0.0612093 0.0120465 0)
(0.0602602 0.00826086 0)
(0.0587959 0.00468732 0)
(0.0565715 0.000708996 0)
(0.0538145 -0.00483203 0)
(0.0492995 -0.0125266 0)
(0.0453035 -0.0254232 0)
(0.0329725 -0.0467624 0)
(0.0373585 -0.0858842 0)
(-0.00642252 -0.155418 0)
(0.0322442 -0.250914 0)
(0.0110496 0.100555 0)
(0.0292588 0.0930254 0)
(0.0512623 0.078986 0)
(0.0681271 0.0650447 0)
(0.0808619 0.051696 0)
(0.0898383 0.0400855 0)
(0.0954804 0.0307515 0)
(0.0986932 0.0235778 0)
(0.100167 0.0181711 0)
(0.100537 0.0140058 0)
(0.0999319 0.0106376 0)
(0.0988297 0.00755001 0)
(0.0964469 0.00427674 0)
(0.094242 -0.000142466 0)
(0.0886001 -0.00626383 0)
(0.084422 -0.0177797 0)
(0.0689871 -0.0352331 0)
(0.0678763 -0.0727105 0)
(0.0128714 -0.135823 0)
(0.0498757 -0.222941 0)
(0.0154137 0.0510609 0)
(0.0307655 0.0418426 0)
(0.0638203 0.036856 0)
(0.0887154 0.0318145 0)
(0.108501 0.0264569 0)
(0.123548 0.0213515 0)
(0.134544 0.016925 0)
(0.142612 0.0133837 0)
(0.148098 0.0107517 0)
(0.152177 0.0086311 0)
(0.154475 0.0069796 0)
(0.156432 0.00510267 0)
(0.15642 0.00344257 0)
(0.156352 -0.000135334 0)
(0.151899 -0.00314567 0)
(0.14862 -0.0115438 0)
(0.134055 -0.0215189 0)
(0.126822 -0.0502707 0)
(0.0653328 -0.0941063 0)
(0.0900903 -0.164596 0)
(0.0635326 0.098799 0)
(0.0772808 0.0639015 0)
(0.123263 0.0434786 0)
(0.157845 0.0339599 0)
(0.18446 0.0280738 0)
(0.206142 0.0236524 0)
(0.223759 0.0200399 0)
(0.238669 0.0171362 0)
(0.250483 0.0146946 0)
(0.260675 0.0127358 0)
(0.268332 0.0109166 0)
(0.275189 0.00940613 0)
(0.279485 0.00767443 0)
(0.283077 0.00609446 0)
(0.283205 0.00369559 0)
(0.279891 0.000502826 0)
(0.269402 -0.00135635 0)
(0.250573 -0.0117382 0)
(0.188907 -0.0225215 0)
(0.172617 -0.117422 0)
)
;

boundaryField
{
    movingWall
    {
        type            fixedValue;
        value           uniform (1 0 0);
    }
    movingWallBottom
    {
        type            fixedValue;
        value           uniform (1 0 0);
    }
    fixedWalls
    {
        type            noSlip;
    }
    frontAndBack
    {
        type            empty;
    }
}


// ************************************************************************* //
