/*--------------------------------*- C++ -*----------------------------------*\
| =========                 |                                                 |
| \\      /  F ield         | OpenFOAM: The Open Source CFD Toolbox           |
|  \\    /   O peration     | Version:  4.1                                   |
|   \\  /    A nd           | Web:      www.OpenFOAM.org                      |
|    \\/     M anipulation  |                                                 |
\*---------------------------------------------------------------------------*/
FoamFile
{
    version     2.0;
    format      ascii;
    class       volScalarField;
    location    "6";
    object      epsilon;
}
// * * * * * * * * * * * * * * * * * * * * * * * * * * * * * * * * * * * * * //

dimensions      [0 2 -3 0 0 0 0];

internalField   nonuniform List<scalar> 
400
(
0.0400741
0.0698969
0.0910966
0.102214
0.109708
0.115273
0.119876
0.123667
0.126942
0.129695
0.132171
0.134468
0.136761
0.139194
0.142322
0.145275
0.148826
0.153778
0.170298
0.148449
0.00997593
0.0081922
0.00882851
0.00972416
0.0106694
0.0117189
0.0129732
0.0144774
0.0161326
0.0179795
0.0198312
0.0218831
0.0236605
0.0258662
0.0273007
0.0312379
0.0364311
0.0488814
0.0749351
0.110286
0.011372
0.00595593
0.00437364
0.0039319
0.00395345
0.00416969
0.00467566
0.00542345
0.00630853
0.00729693
0.0082769
0.00925713
0.0100666
0.0108104
0.0112559
0.012219
0.0139075
0.0199825
0.0371111
0.0810501
0.0124189
0.00529986
0.00372168
0.00337144
0.00345868
0.00378435
0.0043597
0.00505205
0.00577515
0.00645214
0.00699482
0.00734663
0.00747412
0.00745847
0.00732086
0.00742607
0.0081342
0.0121828
0.0250216
0.0660702
0.0132587
0.00513682
0.00375414
0.00365544
0.00399052
0.00459485
0.00527581
0.00594672
0.00651078
0.00690225
0.00705414
0.0069566
0.00662568
0.00612324
0.00558069
0.00535204
0.00584869
0.00935155
0.0201681
0.0571321
0.0136847
0.00525049
0.0042782
0.00426138
0.00485227
0.0056057
0.00634052
0.0069449
0.00730651
0.0074184
0.00722627
0.0067579
0.00606894
0.00527496
0.00458749
0.0043213
0.00500689
0.00841027
0.0190984
0.0502431
0.0141819
0.00604913
0.00494267
0.00484825
0.00550824
0.00633798
0.00704825
0.00752437
0.00771849
0.00767073
0.0072351
0.00654456
0.0057065
0.00487643
0.00440285
0.00431431
0.00526373
0.0088756
0.0196497
0.0439845
0.0145158
0.00675185
0.00527475
0.00510719
0.00573897
0.00656295
0.00719148
0.00750625
0.00759758
0.00740006
0.00687937
0.00622324
0.00555297
0.00511985
0.00497018
0.00523251
0.00672468
0.0107884
0.0212563
0.0372752
0.0146473
0.00749755
0.00527737
0.00465419
0.00463621
0.00510039
0.00539594
0.00558752
0.00565326
0.00565765
0.00562509
0.0056229
0.00578306
0.00612007
0.00678427
0.00803812
0.0103948
0.0147002
0.0213524
0.0291386
0.0146908
0.00786961
0.00504928
0.00388811
0.00355482
0.00349778
0.00358137
0.00378293
0.00404564
0.00441817
0.00488514
0.00550418
0.0062958
0.00734069
0.00873459
0.0106321
0.0131676
0.0162179
0.0177127
0.0163085
0.0146772
0.00786011
0.00505172
0.00389797
0.00356904
0.00351481
0.00360534
0.00380688
0.00406859
0.00443484
0.00489504
0.00550357
0.00628447
0.00731652
0.00869991
0.0105928
0.0131433
0.0163007
0.0178733
0.0167181
0.0146175
0.00746784
0.00524875
0.00462391
0.00460444
0.00507457
0.0053859
0.00559373
0.00566863
0.00567462
0.00562634
0.00561338
0.00572908
0.00603877
0.00665364
0.00787247
0.0101866
0.0145144
0.0213781
0.0295462
0.0144688
0.00671527
0.00522956
0.00504636
0.0056599
0.00647973
0.00710917
0.00743083
0.00752625
0.00734546
0.00683405
0.00618342
0.00550842
0.00506078
0.00490229
0.0051454
0.00661163
0.0106462
0.0211141
0.0374541
0.0141173
0.00600967
0.00489059
0.00479089
0.00543449
0.00625613
0.00695832
0.00742889
0.00762261
0.00758138
0.00715624
0.0064779
0.00565243
0.00483269
0.00436181
0.0042735
0.00522
0.00880477
0.0195458
0.0441041
0.013628
0.00521426
0.00423661
0.00421456
0.00479426
0.0055371
0.00626037
0.00685733
0.00721708
0.00733207
0.00714912
0.00669441
0.0060219
0.005244
0.00456829
0.00430682
0.00498716
0.00837198
0.0190132
0.0502951
0.0132064
0.0051138
0.00372407
0.00362222
0.00395026
0.00454553
0.00521502
0.00587565
0.00643343
0.00682389
0.00698101
0.00689272
0.00657698
0.00608915
0.00556086
0.00534371
0.00584334
0.00933313
0.0200997
0.0571423
0.0123727
0.00527874
0.0037042
0.00335261
0.00343576
0.00375205
0.004315
0.00499458
0.00570706
0.00637773
0.00691922
0.0072758
0.00741384
0.00740779
0.0072862
0.00740071
0.00811664
0.0121642
0.0250104
0.0660437
0.0113266
0.00593565
0.00435942
0.003918
0.00393666
0.00414512
0.00463712
0.00536991
0.00623932
0.00721493
0.00818536
0.0091625
0.00997291
0.0107267
0.0111814
0.0121613
0.0138596
0.0199395
0.0370732
0.0810132
0.0099434
0.00817505
0.00881639
0.00970785
0.0106434
0.0116791
0.0129136
0.0143974
0.0160291
0.0178564
0.0196865
0.0217263
0.0234929
0.0256939
0.0271407
0.0311081
0.0363146
0.0487838
0.0748696
0.110197
0.0400729
0.069945
0.0911465
0.102229
0.109672
0.115189
0.119742
0.123497
0.126735
0.12947
0.13192
0.134213
0.136494
0.138937
0.142067
0.145026
0.14859
0.153553
0.170106
0.148319
)
;

boundaryField
{
    movingWall
    {
        Cmu             0.09;
        kappa           0.41;
        E               9.8;
        type            epsilonWallFunction;
        value           nonuniform List<scalar> 
20
(
0.0400729
0.069945
0.0911465
0.102229
0.109672
0.115189
0.119742
0.123497
0.126735
0.12947
0.13192
0.134213
0.136494
0.138937
0.142067
0.145026
0.14859
0.153553
0.170106
0.148319
)
;
    }
    movingWallBottom
    {
        Cmu             0.09;
        kappa           0.41;
        E               9.8;
        type            epsilonWallFunction;
        value           nonuniform List<scalar> 
20
(
0.0400741
0.0698969
0.0910966
0.102214
0.109708
0.115273
0.119876
0.123667
0.126942
0.129695
0.132171
0.134468
0.136761
0.139194
0.142322
0.145275
0.148826
0.153778
0.170298
0.148449
)
;
    }
    fixedWalls
    {
        Cmu             0.09;
        kappa           0.41;
        E               9.8;
        type            epsilonWallFunction;
        value           nonuniform List<scalar> 
40
(
0.0400741
0.00997593
0.011372
0.0124189
0.0132587
0.0136847
0.0141819
0.0145158
0.0146473
0.0146908
0.0146772
0.0146175
0.0144688
0.0141173
0.013628
0.0132064
0.0123727
0.0113266
0.0099434
0.0400729
0.148449
0.110286
0.0810501
0.0660702
0.0571321
0.0502431
0.0439845
0.0372752
0.0291386
0.0163085
0.0167181
0.0295462
0.0374541
0.0441041
0.0502951
0.0571423
0.0660437
0.0810132
0.110197
0.148319
)
;
    }
    frontAndBack
    {
        type            empty;
    }
}


// ************************************************************************* //
