/*--------------------------------*- C++ -*----------------------------------*\
| =========                 |                                                 |
| \\      /  F ield         | OpenFOAM: The Open Source CFD Toolbox           |
|  \\    /   O peration     | Version:  4.1                                   |
|   \\  /    A nd           | Web:      www.OpenFOAM.org                      |
|    \\/     M anipulation  |                                                 |
\*---------------------------------------------------------------------------*/
FoamFile
{
    version     2.0;
    format      ascii;
    class       volScalarField;
    location    "6";
    object      k;
}
// * * * * * * * * * * * * * * * * * * * * * * * * * * * * * * * * * * * * * //

dimensions      [0 2 -2 0 0 0 0];

internalField   nonuniform List<scalar> 
400
(
0.00396831
0.00575014
0.00686083
0.00740833
0.00776622
0.0080267
0.00823898
0.00841178
0.00855964
0.00868295
0.00879311
0.00889463
0.00899547
0.0091018
0.00923762
0.00936497
0.00951693
0.00972685
0.0104115
0.00950071
0.00157024
0.00170282
0.00198841
0.00216345
0.00228125
0.00240596
0.00255873
0.00274759
0.00296363
0.00320548
0.00345191
0.00370367
0.0039179
0.00413356
0.00423359
0.00443523
0.00460287
0.00511764
0.00644988
0.00779319
0.00171348
0.00169221
0.00182149
0.00192378
0.00200491
0.00213525
0.00232172
0.00255756
0.00282203
0.0030928
0.00333657
0.0035317
0.00365677
0.00367034
0.00361434
0.00349753
0.00326431
0.00343628
0.00432996
0.00634649
0.00181713
0.00173077
0.00181905
0.00194597
0.00214513
0.00241478
0.0027232
0.00304058
0.00333245
0.00356874
0.0037218
0.00376999
0.00372768
0.00359481
0.00334128
0.00306026
0.00274163
0.00285443
0.00354345
0.00553816
0.00189817
0.00195794
0.00205078
0.00218981
0.00245249
0.00278554
0.00314004
0.00346948
0.00372418
0.00388162
0.00392487
0.00385843
0.00367156
0.00338258
0.00301457
0.00266296
0.00239082
0.00255359
0.00322038
0.00502665
0.00193863
0.00216089
0.00221058
0.00235816
0.00268338
0.00306016
0.00341269
0.0036984
0.00389515
0.00397123
0.00391519
0.00372349
0.00341705
0.00302691
0.00260444
0.0022565
0.00210292
0.00230155
0.00301496
0.00461396
0.00198532
0.00240321
0.00236132
0.00243565
0.00278069
0.00316435
0.0034925
0.00370962
0.00379599
0.00378194
0.00361926
0.00334031
0.00297187
0.00255263
0.00213156
0.00190444
0.00184211
0.00214114
0.00292846
0.00422234
0.00201637
0.00263994
0.00242208
0.00241103
0.00266065
0.00295827
0.00317076
0.00326875
0.00328713
0.0031705
0.00294252
0.00264476
0.00231819
0.00201245
0.00185166
0.00179298
0.00184358
0.00220449
0.00294245
0.00378121
0.00202854
0.00283044
0.00220475
0.00200214
0.00199426
0.00210832
0.00215849
0.00217308
0.00212186
0.0020211
0.00191603
0.00181749
0.00176334
0.00174247
0.00175926
0.00186654
0.0020673
0.00247926
0.00290907
0.00320867
0.00203255
0.00297464
0.00207271
0.00164115
0.00147773
0.00141374
0.00138537
0.00137614
0.0013775
0.00141149
0.00145749
0.00153265
0.00162789
0.00175276
0.00191041
0.00211622
0.00235388
0.00253869
0.00260666
0.00217913
0.00203129
0.00297127
0.00207443
0.00164608
0.0014851
0.00142312
0.00139588
0.00138709
0.00138832
0.00141943
0.00146377
0.00153556
0.00162896
0.00175074
0.00190636
0.00211205
0.00235272
0.00254764
0.00262246
0.00221551
0.00202578
0.00282243
0.00219711
0.00199357
0.00198594
0.00210893
0.00216547
0.00218438
0.00214595
0.00204395
0.0019389
0.00183279
0.00177136
0.00174627
0.00174922
0.0018548
0.00204484
0.00246322
0.00290886
0.00323856
0.00201201
0.00262673
0.00240349
0.00239013
0.00263694
0.0029377
0.00315752
0.00326174
0.00328474
0.00317926
0.00295783
0.00266225
0.00233477
0.00202253
0.0018531
0.00179092
0.00183547
0.00219595
0.00293582
0.00379331
0.00197928
0.0023893
0.00234312
0.00241283
0.00275479
0.00313826
0.00346789
0.00368845
0.00377769
0.00376987
0.00361289
0.00333897
0.00297523
0.00255952
0.00214074
0.00190964
0.00184529
0.00213759
0.00292219
0.00423
0.00193326
0.00214813
0.00219366
0.00233713
0.00265956
0.0030351
0.0033871
0.00367296
0.00387119
0.00395089
0.00389979
0.00371352
0.00341273
0.00302739
0.0026088
0.00226252
0.00210857
0.00230566
0.0030125
0.00461714
0.00189316
0.00194737
0.00203696
0.00217311
0.00243338
0.00276382
0.0031158
0.00344358
0.00369899
0.00385852
0.0039051
0.00384282
0.00366124
0.00337747
0.00301346
0.00266477
0.00239222
0.00255115
0.00321419
0.00502726
0.00181262
0.00172226
0.00180971
0.00193384
0.00213045
0.0023972
0.00270253
0.00301729
0.0033078
0.00354431
0.00369921
0.00375074
0.00371099
0.0035829
0.00333295
0.00305545
0.00273823
0.00285088
0.0035399
0.00553668
0.00170892
0.00168635
0.00181432
0.00191774
0.00199787
0.00212554
0.0023083
0.00254005
0.00280079
0.00306905
0.00331166
0.00350742
0.00363374
0.00365102
0.00359687
0.00348304
0.00325385
0.00342661
0.00432376
0.00634457
0.00156682
0.00169851
0.00198373
0.00215856
0.00227551
0.00239835
0.00254838
0.00273404
0.00294647
0.00318504
0.00342826
0.00367819
0.0038908
0.00410671
0.00420791
0.00441251
0.00458344
0.00510344
0.00644394
0.00778899
0.00396823
0.00575277
0.00686333
0.00740907
0.00776452
0.00802278
0.00823282
0.00840408
0.00855032
0.00867287
0.00878194
0.00888337
0.00898372
0.00909058
0.00922659
0.00935425
0.00950688
0.00971738
0.0104037
0.00949516
)
;

boundaryField
{
    movingWall
    {
        type            kqRWallFunction;
        value           nonuniform List<scalar> 
20
(
0.00396823
0.00575277
0.00686333
0.00740907
0.00776452
0.00802278
0.00823282
0.00840408
0.00855032
0.00867287
0.00878194
0.00888337
0.00898372
0.00909058
0.00922659
0.00935425
0.00950688
0.00971738
0.0104037
0.00949516
)
;
    }
    movingWallBottom
    {
        type            kqRWallFunction;
        value           nonuniform List<scalar> 
20
(
0.00396831
0.00575014
0.00686083
0.00740833
0.00776622
0.0080267
0.00823898
0.00841178
0.00855964
0.00868295
0.00879311
0.00889463
0.00899547
0.0091018
0.00923762
0.00936497
0.00951693
0.00972685
0.0104115
0.00950071
)
;
    }
    fixedWalls
    {
        type            kqRWallFunction;
        value           nonuniform List<scalar> 
40
(
0.00396831
0.00157024
0.00171348
0.00181713
0.00189817
0.00193863
0.00198532
0.00201637
0.00202854
0.00203255
0.00203129
0.00202578
0.00201201
0.00197928
0.00193326
0.00189316
0.00181262
0.00170892
0.00156682
0.00396823
0.00950071
0.00779319
0.00634649
0.00553816
0.00502665
0.00461396
0.00422234
0.00378121
0.00320867
0.00217913
0.00221551
0.00323856
0.00379331
0.00423
0.00461714
0.00502726
0.00553668
0.00634457
0.00778899
0.00949516
)
;
    }
    frontAndBack
    {
        type            empty;
    }
}


// ************************************************************************* //
