/*--------------------------------*- C++ -*----------------------------------*\
| =========                 |                                                 |
| \\      /  F ield         | OpenFOAM: The Open Source CFD Toolbox           |
|  \\    /   O peration     | Version:  4.1                                   |
|   \\  /    A nd           | Web:      www.OpenFOAM.org                      |
|    \\/     M anipulation  |                                                 |
\*---------------------------------------------------------------------------*/
FoamFile
{
    version     2.0;
    format      ascii;
    class       volScalarField;
    location    "6";
    object      nut;
}
// * * * * * * * * * * * * * * * * * * * * * * * * * * * * * * * * * * * * * //

dimensions      [0 2 -1 0 0 0 0];

internalField   nonuniform List<scalar> 
400
(
3.53663e-05
4.25737e-05
4.65044e-05
4.83253e-05
4.94793e-05
5.03024e-05
5.09634e-05
5.1495e-05
5.19456e-05
5.23182e-05
5.26489e-05
5.29517e-05
5.32509e-05
5.35645e-05
5.39625e-05
5.4333e-05
5.47719e-05
5.53725e-05
5.72876e-05
5.4724e-05
2.22445e-05
3.18552e-05
4.03057e-05
4.33197e-05
4.38981e-05
4.44564e-05
4.54196e-05
4.69306e-05
4.89987e-05
5.14341e-05
5.40771e-05
5.64154e-05
5.83881e-05
5.94511e-05
5.90861e-05
5.66752e-05
5.23394e-05
4.82212e-05
4.99644e-05
4.95625e-05
2.32362e-05
4.32713e-05
6.82733e-05
8.4713e-05
9.15069e-05
9.84093e-05
0.000103757
0.000108547
0.000113616
0.000117979
0.000121053
0.000121265
0.000119551
0.000112153
0.000104453
9.01012e-05
6.89567e-05
5.31828e-05
4.54681e-05
4.47256e-05
2.39292e-05
5.08693e-05
8.00192e-05
0.000101089
0.00011974
0.000138677
0.000153089
0.000164697
0.000173063
0.000177651
0.000178227
0.000174115
0.000167324
0.000155935
0.000137248
0.000113501
8.31657e-05
6.01916e-05
4.51627e-05
4.178e-05
2.44574e-05
6.71653e-05
0.000100826
0.000118063
0.000135652
0.000151981
0.000168199
0.000182177
0.000191722
0.000196462
0.000196539
0.000192604
0.000183111
0.000168173
0.000146557
0.000119249
8.79585e-05
6.2757e-05
4.628e-05
3.98034e-05
2.4717e-05
8.00401e-05
0.0001028
0.000117447
0.000133555
0.000150349
0.000165315
0.000177258
0.000186887
0.000191329
0.000190912
0.000184642
0.000173154
0.000156322
0.000133075
0.000106047
7.94913e-05
5.66858e-05
4.28361e-05
3.81341e-05
2.50133e-05
8.59274e-05
0.000101529
0.000110125
0.000126338
0.000142187
0.000155752
0.0001646
0.00016802
0.000167817
0.000162943
0.000153439
0.000139294
0.000120258
9.2876e-05
7.56599e-05
5.80202e-05
4.64872e-05
3.92794e-05
3.64795e-05
2.52083e-05
9.28983e-05
0.000100097
0.000102439
0.000111016
0.00012001
0.00012582
0.00012811
0.000127997
0.000122254
0.000113275
0.000101157
8.70996e-05
7.11928e-05
6.2086e-05
5.52944e-05
4.54879e-05
4.05414e-05
3.66584e-05
3.4521e-05
2.52843e-05
9.61683e-05
8.28976e-05
7.75152e-05
7.72043e-05
7.84354e-05
7.77098e-05
7.60635e-05
7.16767e-05
6.49805e-05
5.87376e-05
5.28719e-05
4.83902e-05
4.46493e-05
4.10583e-05
3.90086e-05
3.70026e-05
3.76324e-05
3.56701e-05
3.17997e-05
2.53093e-05
0.000101195
7.65759e-05
6.23447e-05
5.52856e-05
5.14267e-05
4.82306e-05
4.50548e-05
4.22124e-05
4.05841e-05
3.91362e-05
3.84093e-05
3.78826e-05
3.76662e-05
3.76055e-05
3.79093e-05
3.78707e-05
3.57657e-05
3.45242e-05
2.62056e-05
2.53015e-05
0.000101088
7.66653e-05
6.25613e-05
5.56163e-05
5.1859e-05
4.86397e-05
4.54865e-05
4.2636e-05
4.08875e-05
3.93944e-05
3.85597e-05
3.80009e-05
3.77033e-05
3.75958e-05
3.78999e-05
3.79034e-05
3.58353e-05
3.46303e-05
2.64243e-05
2.52672e-05
9.60047e-05
8.27732e-05
7.73561e-05
7.70903e-05
7.88803e-05
7.83589e-05
7.67713e-05
7.31144e-05
6.62592e-05
6.01351e-05
5.38571e-05
4.92913e-05
4.54484e-05
4.13877e-05
3.93301e-05
3.69426e-05
3.76227e-05
3.56222e-05
3.19481e-05
2.5181e-05
9.2472e-05
9.94175e-05
0.000101885
0.00011057
0.000119867
0.000126216
0.000128856
0.000129022
0.000123844
0.000115215
0.00010316
8.90644e-05
7.2747e-05
6.30438e-05
5.61015e-05
4.58592e-05
4.07656e-05
3.6739e-05
3.45764e-05
2.49751e-05
8.54936e-05
0.000101035
0.000109366
0.000125679
0.000141682
0.000155549
0.000164819
0.000168497
0.000168712
0.00016416
0.000154893
0.000140945
0.000122003
9.45588e-05
7.68003e-05
5.87086e-05
4.6706e-05
3.93194e-05
3.65127e-05
2.46826e-05
7.96476e-05
0.000102226
0.000116642
0.000132782
0.000149729
0.00016493
0.00017706
0.000186883
0.000191604
0.000191457
0.000185396
0.000174066
0.000157296
0.000134082
0.000106972
8.02355e-05
5.71487e-05
4.29575e-05
3.81473e-05
2.44251e-05
6.67417e-05
0.000100275
0.000117337
0.000134907
0.000151244
0.000167543
0.000181638
0.000191411
0.000196359
0.000196602
0.00019282
0.00018343
0.000168605
0.000146971
0.000119596
8.81425e-05
6.27605e-05
4.62588e-05
3.98058e-05
2.38994e-05
5.05718e-05
7.95734e-05
0.000100393
0.000118895
0.000137842
0.000152336
0.000164051
0.000172548
0.000177272
0.000177993
0.000174019
0.000167178
0.000155964
0.000137214
0.000113533
8.31395e-05
6.01333e-05
4.50924e-05
4.17744e-05
2.32051e-05
4.31192e-05
6.79584e-05
8.44809e-05
9.12535e-05
9.80946e-05
0.000103414
0.000108134
0.000113153
0.000117494
0.000120586
0.000120838
0.000119159
0.000111842
0.000104135
8.97801e-05
6.87522e-05
5.29978e-05
4.53842e-05
4.47188e-05
2.22201e-05
3.17606e-05
4.01715e-05
4.31964e-05
4.37845e-05
4.43262e-05
4.5261e-05
4.6727e-05
4.87458e-05
5.11304e-05
5.37306e-05
5.60435e-05
5.7994e-05
5.90745e-05
5.87157e-05
5.63301e-05
5.20647e-05
4.80499e-05
4.9916e-05
4.95491e-05
3.5366e-05
4.25834e-05
4.65128e-05
4.83277e-05
4.94738e-05
5.029e-05
5.09442e-05
5.14713e-05
5.19171e-05
5.22877e-05
5.26153e-05
5.29181e-05
5.3216e-05
5.35313e-05
5.39302e-05
5.43018e-05
5.47428e-05
5.53454e-05
5.72659e-05
5.47079e-05
)
;

boundaryField
{
    movingWall
    {
        type            nutkWallFunction;
        Cmu             0.09;
        kappa           0.41;
        E               9.8;
        value           nonuniform List<scalar> 
20
(
0
0
0
1.74988e-07
3.65067e-07
5.00042e-07
6.0798e-07
6.9482e-07
7.68167e-07
8.29079e-07
8.82874e-07
9.32556e-07
9.81391e-07
1.03305e-06
1.09829e-06
1.15902e-06
1.23102e-06
1.32922e-06
1.64115e-06
1.22551e-06
)
;
    }
    movingWallBottom
    {
        type            nutkWallFunction;
        Cmu             0.09;
        kappa           0.41;
        E               9.8;
        value           nonuniform List<scalar> 
20
(
0
0
0
1.74587e-07
3.65964e-07
5.0207e-07
6.11122e-07
6.98703e-07
7.7282e-07
8.34069e-07
8.8836e-07
9.38052e-07
9.87089e-07
1.03845e-06
1.10356e-06
1.1641e-06
1.23574e-06
1.33361e-06
1.64465e-06
1.22812e-06
)
;
    }
    fixedWalls
    {
        type            nutkWallFunction;
        Cmu             0.09;
        kappa           0.41;
        E               9.8;
        value           nonuniform List<scalar> 
40
(
0
0
0
0
0
0
0
0
0
0
0
0
0
0
0
0
0
0
0
0
1.22812e-06
3.80178e-07
0
0
0
0
0
0
0
0
0
0
0
0
0
0
0
0
3.77967e-07
1.22551e-06
)
;
    }
    frontAndBack
    {
        type            empty;
    }
}


// ************************************************************************* //
