/*--------------------------------*- C++ -*----------------------------------*\
| =========                 |                                                 |
| \\      /  F ield         | OpenFOAM: The Open Source CFD Toolbox           |
|  \\    /   O peration     | Version:  4.1                                   |
|   \\  /    A nd           | Web:      www.OpenFOAM.org                      |
|    \\/     M anipulation  |                                                 |
\*---------------------------------------------------------------------------*/
FoamFile
{
    version     2.0;
    format      ascii;
    class       volScalarField;
    location    "6";
    object      p;
}
// * * * * * * * * * * * * * * * * * * * * * * * * * * * * * * * * * * * * * //

dimensions      [0 2 -2 0 0 0 0];

internalField   nonuniform List<scalar> 
400
(
-1.05649e-07
0.000366398
-0.00371215
-0.00765245
-0.0110611
-0.0139716
-0.0164222
-0.0184181
-0.0199801
-0.021147
-0.0219618
-0.0224294
-0.0225011
-0.0220524
-0.0208675
-0.018525
-0.0136532
-0.00513843
0.00806605
0.0286874
-0.00607502
-0.00562153
-0.00744186
-0.0100408
-0.0128521
-0.0154642
-0.017692
-0.0194908
-0.0208905
-0.021943
-0.0226964
-0.0231611
-0.0233102
-0.0230284
-0.0220629
-0.0200525
-0.0166775
-0.0109303
-0.00266347
0.0162222
-0.00693817
-0.00742771
-0.00918775
-0.0116027
-0.0141635
-0.0164918
-0.018436
-0.0199928
-0.0212146
-0.0221494
-0.0228319
-0.0232553
-0.0234054
-0.0231795
-0.0225607
-0.0211447
-0.0189083
-0.0151017
-0.0111818
-0.000188839
-0.00834398
-0.00928471
-0.0110998
-0.0134443
-0.0157676
-0.0177949
-0.0194479
-0.0207547
-0.0217743
-0.0225542
-0.0231249
-0.0234926
-0.023644
-0.0235075
-0.0230252
-0.0219959
-0.0204886
-0.0176081
-0.016136
-0.00972097
-0.00881905
-0.0101504
-0.0120592
-0.0143894
-0.0166166
-0.0185181
-0.0200404
-0.0212177
-0.0221151
-0.0227901
-0.02328
-0.0235967
-0.0237271
-0.023618
-0.0232079
-0.0223842
-0.0212675
-0.0186228
-0.0176561
-0.0126705
-0.00804203
-0.00981334
-0.0119363
-0.0144079
-0.01672
-0.0186678
-0.020208
-0.0213763
-0.0222405
-0.0228656
-0.0232993
-0.0235591
-0.0236335
-0.0234732
-0.0230112
-0.0221682
-0.0208915
-0.0183355
-0.0161477
-0.0112788
-0.00607611
-0.00817094
-0.0106343
-0.013404
-0.016005
-0.0181875
-0.0198943
-0.021165
-0.0220786
-0.0227044
-0.0230975
-0.023285
-0.0232528
-0.0229494
-0.0223187
-0.021216
-0.0193272
-0.0161464
-0.0122347
-0.00707115
-0.00317656
-0.00560525
-0.00843006
-0.0115878
-0.0146019
-0.0171467
-0.0191329
-0.0205899
-0.0216053
-0.0222571
-0.0226109
-0.0226979
-0.0225077
-0.0219977
-0.0210523
-0.0193704
-0.01645
-0.0119103
-0.00612896
-0.000801719
-0.000175681
-0.00277573
-0.00586616
-0.00936092
-0.0127708
-0.0157115
-0.0180381
-0.0197399
-0.0209016
-0.0216157
-0.0219526
-0.0219446
-0.021596
-0.0208294
-0.0193909
-0.0168101
-0.0125155
-0.00622421
0.00158957
0.00606006
0.00180797
-0.000874052
-0.00410573
-0.0078316
-0.0114972
-0.0146436
-0.0171478
-0.0190101
-0.0203002
-0.0210904
-0.0214349
-0.0213614
-0.0208766
-0.0198496
-0.0179277
-0.0145031
-0.00897824
-0.00132292
0.00702825
0.0111088
0.00178474
-0.000892304
-0.0041212
-0.00784787
-0.0115182
-0.0146678
-0.0171746
-0.0190391
-0.0203302
-0.021121
-0.0214668
-0.0213974
-0.0209144
-0.0198903
-0.0179767
-0.0145679
-0.00906758
-0.00144318
0.00688321
0.0109686
-0.000221979
-0.00281042
-0.00589386
-0.0093902
-0.012808
-0.0157587
-0.0180974
-0.0198104
-0.0209811
-0.0217004
-0.0220388
-0.0220299
-0.0216797
-0.0209148
-0.0194867
-0.0169311
-0.0126806
-0.0064538
0.00127869
0.00576141
-0.00321985
-0.00563382
-0.00845114
-0.0116122
-0.0146383
-0.0172004
-0.0192041
-0.0206751
-0.0217013
-0.0223595
-0.0227151
-0.0228006
-0.0226071
-0.0220931
-0.0211467
-0.0194774
-0.0165918
-0.0121096
-0.00641391
-0.00111039
-0.00610145
-0.00818411
-0.0106435
-0.013421
-0.0160386
-0.0182411
-0.0199669
-0.0212525
-0.022176
-0.0228066
-0.0231998
-0.023383
-0.0233439
-0.0230338
-0.0223971
-0.0212959
-0.0194261
-0.0162779
-0.0124329
-0.00731242
-0.00804618
-0.00980769
-0.0119304
-0.0144134
-0.0167446
-0.0187143
-0.0202747
-0.0214589
-0.0223334
-0.0229628
-0.0233958
-0.0236503
-0.0237162
-0.0235462
-0.023075
-0.0222251
-0.0209521
-0.0184018
-0.0162664
-0.0114315
-0.00880401
-0.0101278
-0.0120385
-0.0143801
-0.0166273
-0.018552
-0.020096
-0.0212905
-0.022199
-0.022879
-0.0233684
-0.0236797
-0.0238014
-0.0236808
-0.0232587
-0.0224236
-0.0212959
-0.0186474
-0.0177175
-0.012738
-0.0083164
-0.00925028
-0.0110659
-0.0134206
-0.0157631
-0.0178138
-0.0194893
-0.0208142
-0.0218461
-0.0226324
-0.023204
-0.0235673
-0.0237102
-0.0235605
-0.0230638
-0.022018
-0.0204946
-0.0176073
-0.0161389
-0.00973051
-0.0069074
-0.00738813
-0.00914635
-0.0115684
-0.0141453
-0.0164952
-0.0184617
-0.0200377
-0.0212735
-0.0222163
-0.0229011
-0.023321
-0.0234629
-0.0232248
-0.0225901
-0.0211543
-0.0188986
-0.0150788
-0.0111473
-0.00015541
-0.00604949
-0.00558546
-0.00739736
-0.00999762
-0.012821
-0.0154526
-0.0177025
-0.0195222
-0.0209385
-0.0220016
-0.0227594
-0.0232222
-0.0233637
-0.0230685
-0.0220848
-0.0200526
-0.0166548
-0.0108883
-0.00260293
0.0162834
1.60258e-05
0.000392474
-0.00367256
-0.00761088
-0.0110292
-0.0139578
-0.0164302
-0.0184472
-0.0200261
-0.021204
-0.0220228
-0.0224881
-0.0225513
-0.0220891
-0.0208855
-0.0185203
-0.0136221
-0.00508446
0.00813723
0.0287644
)
;

boundaryField
{
    movingWall
    {
        type            zeroGradient;
    }
    movingWallBottom
    {
        type            zeroGradient;
    }
    fixedWalls
    {
        type            zeroGradient;
    }
    frontAndBack
    {
        type            empty;
    }
}


// ************************************************************************* //
