/*--------------------------------*- C++ -*----------------------------------*\
| =========                 |                                                 |
| \\      /  F ield         | OpenFOAM: The Open Source CFD Toolbox           |
|  \\    /   O peration     | Version:  4.1                                   |
|   \\  /    A nd           | Web:      www.OpenFOAM.org                      |
|    \\/     M anipulation  |                                                 |
\*---------------------------------------------------------------------------*/
FoamFile
{
    version     2.0;
    format      ascii;
    class       surfaceScalarField;
    location    "6";
    object      phi;
}
// * * * * * * * * * * * * * * * * * * * * * * * * * * * * * * * * * * * * * //

dimensions      [0 3 -1 0 0 0 0];

internalField   nonuniform List<scalar> 
760
(
3.23069e-06
-3.23068e-06
5.46098e-06
-2.23029e-06
7.18601e-06
-1.72503e-06
8.63454e-06
-1.44853e-06
9.84537e-06
-1.21083e-06
1.08381e-05
-9.92766e-07
1.1645e-05
-8.06868e-07
1.23044e-05
-6.59401e-07
1.28498e-05
-5.45387e-07
1.3303e-05
-4.53186e-07
1.36775e-05
-3.74494e-07
1.39724e-05
-2.94894e-07
1.41879e-05
-2.1554e-07
1.42865e-05
-9.86284e-08
1.42719e-05
1.4675e-08
1.3907e-05
3.64901e-07
1.31631e-05
7.43848e-07
1.1248e-05
1.91516e-06
7.73369e-06
3.51427e-06
7.73369e-06
1.04906e-06
-4.27975e-06
2.56919e-06
-3.75042e-06
3.97658e-06
-3.13242e-06
5.08803e-06
-2.55998e-06
5.92254e-06
-2.04534e-06
6.54076e-06
-1.61098e-06
6.9951e-06
-1.26121e-06
7.32439e-06
-9.88695e-07
7.56091e-06
-7.819e-07
7.72633e-06
-6.18612e-07
7.83935e-06
-4.8751e-07
7.90352e-06
-3.59066e-07
7.91726e-06
-2.29275e-07
7.81628e-06
2.34863e-09
7.61882e-06
2.12132e-07
7.25676e-06
7.26969e-07
6.58118e-06
1.41942e-06
5.38073e-06
3.11561e-06
2.94478e-06
5.95021e-06
1.06785e-05
9.62039e-07
-5.24179e-06
2.1265e-06
-4.91488e-06
3.09631e-06
-4.10223e-06
3.81965e-06
-3.28332e-06
4.32845e-06
-2.55414e-06
4.66673e-06
-1.94926e-06
4.87504e-06
-1.46952e-06
4.98932e-06
-1.10297e-06
5.03585e-06
-8.28425e-07
5.03591e-06
-6.18677e-07
4.99658e-06
-4.48176e-07
4.92368e-06
-2.86174e-07
4.80257e-06
-1.08161e-07
4.65607e-06
1.48853e-07
4.36678e-06
5.01419e-07
3.96965e-06
1.1241e-06
3.28808e-06
2.10099e-06
2.43531e-06
3.96838e-06
1.10381e-06
7.28171e-06
1.17823e-05
7.11699e-07
-5.95348e-06
1.37654e-06
-5.57972e-06
1.95637e-06
-4.68206e-06
2.39992e-06
-3.72687e-06
2.70519e-06
-2.85941e-06
2.89528e-06
-2.13936e-06
3.00017e-06
-1.57441e-06
3.04491e-06
-1.14772e-06
3.04691e-06
-8.30421e-07
3.01787e-06
-5.89641e-07
2.9619e-06
-3.92207e-07
2.87857e-06
-2.02836e-07
2.75723e-06
1.31731e-08
2.59402e-06
3.1206e-07
2.35665e-06
7.38798e-07
2.04839e-06
1.43235e-06
1.5708e-06
2.57859e-06
1.03112e-06
4.50806e-06
4.12367e-07
7.90046e-06
1.21947e-05
3.41687e-07
-6.29517e-06
5.35507e-07
-5.77354e-06
7.31626e-07
-4.87817e-06
8.99002e-07
-3.89424e-06
1.01623e-06
-2.97664e-06
1.08677e-06
-2.2099e-06
1.12148e-06
-1.60912e-06
1.13057e-06
-1.15681e-06
1.12097e-06
-8.20817e-07
1.09668e-06
-5.6535e-07
1.05799e-06
-3.53525e-07
1.00275e-06
-1.47595e-07
9.24086e-07
9.18405e-08
8.18273e-07
4.17873e-07
6.73602e-07
8.83469e-07
4.91207e-07
1.61474e-06
3.14735e-07
2.75506e-06
-9.40562e-08
4.91685e-06
-1.80894e-07
7.9873e-06
1.20138e-05
-2.2807e-07
-6.0671e-06
-4.3197e-07
-5.56964e-06
-5.76254e-07
-4.73389e-06
-6.784e-07
-3.7921e-06
-7.56929e-07
-2.89811e-06
-8.15993e-07
-2.15084e-06
-8.5821e-07
-1.5669e-06
-8.86819e-07
-1.1282e-06
-9.06112e-07
-8.01523e-07
-9.19732e-07
-5.51731e-07
-9.32114e-07
-3.41143e-07
-9.47548e-07
-1.32161e-07
-9.70213e-07
1.14506e-07
-9.97555e-07
4.45215e-07
-1.02832e-06
9.1423e-07
-1.04968e-06
1.63611e-06
-1.06855e-06
2.77392e-06
-9.96198e-07
4.8445e-06
-8.74056e-07
7.86516e-06
1.11397e-05
-7.33877e-07
-5.33322e-06
-1.43231e-06
-4.87121e-06
-1.95886e-06
-4.20734e-06
-2.35831e-06
-3.39264e-06
-2.64784e-06
-2.60858e-06
-2.85006e-06
-1.94862e-06
-2.98631e-06
-1.43065e-06
-3.07297e-06
-1.04154e-06
-3.12402e-06
-7.50473e-07
-3.14893e-06
-5.26816e-07
-3.15559e-06
-3.34486e-07
-3.15101e-06
-1.36739e-07
-3.1373e-06
1.00797e-07
-3.10135e-06
4.09259e-07
-3.03828e-06
8.51167e-07
-2.93117e-06
1.529e-06
-2.77472e-06
2.61747e-06
-2.39738e-06
4.46716e-06
-1.75692e-06
7.22469e-06
9.38278e-06
-1.31772e-06
-4.01551e-06
-2.50476e-06
-3.68417e-06
-3.45843e-06
-3.25367e-06
-4.19311e-06
-2.65796e-06
-4.73394e-06
-2.06776e-06
-5.11852e-06
-1.56403e-06
-5.38879e-06
-1.16039e-06
-5.57766e-06
-8.52663e-07
-5.70927e-06
-6.1886e-07
-5.8004e-06
-4.35688e-07
-5.86265e-06
-2.72242e-07
-5.90424e-06
-9.51461e-08
-5.91504e-06
1.11595e-07
-5.87175e-06
3.65972e-07
-5.74611e-06
7.25525e-07
-5.49386e-06
1.27675e-06
-5.04384e-06
2.16744e-06
-4.17295e-06
3.59628e-06
-2.49559e-06
5.54733e-06
6.88719e-06
-1.84351e-06
-2.172e-06
-3.53732e-06
-1.99036e-06
-5.00272e-06
-1.78826e-06
-6.18623e-06
-1.47445e-06
-7.09195e-06
-1.16204e-06
-7.7606e-06
-8.95377e-07
-8.24513e-06
-6.75868e-07
-8.59921e-06
-4.98575e-07
-8.86205e-06
-3.56019e-07
-9.05593e-06
-2.41812e-07
-9.19048e-06
-1.37697e-07
-9.26133e-06
-2.42965e-08
-9.24278e-06
9.305e-08
-9.10767e-06
2.30863e-07
-8.80925e-06
4.27102e-07
-8.25543e-06
7.22938e-07
-7.30009e-06
1.2121e-06
-5.69851e-06
1.9947e-06
-3.28612e-06
3.13494e-06
3.60108e-06
-2.19547e-06
2.34683e-08
-4.20949e-06
2.36556e-08
-6.02585e-06
2.81022e-08
-7.53315e-06
3.28436e-08
-8.73016e-06
3.4972e-08
-9.6613e-06
3.57708e-08
-1.03698e-05
3.26043e-08
-1.08969e-05
2.85182e-08
-1.12755e-05
2.26105e-08
-1.15337e-05
1.64134e-08
-1.16814e-05
9.93972e-09
-1.17088e-05
3.14951e-09
-1.16129e-05
-2.84476e-09
-1.13727e-05
-9.32325e-09
-1.09303e-05
-1.5295e-08
-1.01839e-05
-2.34994e-08
-8.93833e-06
-3.34588e-08
-6.89491e-06
-4.8725e-08
-3.69144e-06
-6.85324e-08
-9.03596e-08
-2.18669e-06
2.21016e-06
-4.19407e-06
2.03104e-06
-6.00391e-06
1.83794e-06
-7.50524e-06
1.53418e-06
-8.69616e-06
1.22588e-06
-9.61924e-06
9.58854e-07
-1.03214e-05
7.34719e-07
-1.08437e-05
5.5082e-07
-1.12193e-05
3.98276e-07
-1.14762e-05
2.73246e-07
-1.16235e-05
1.57315e-07
-1.16516e-05
3.1202e-08
-1.15564e-05
-9.80043e-08
-1.13178e-05
-2.47971e-07
-1.08779e-05
-4.55172e-07
-1.01358e-05
-7.65616e-07
-8.89619e-06
-1.27306e-06
-6.86118e-06
-2.08373e-06
-3.67043e-06
-3.25928e-06
-3.76079e-06
-1.83012e-06
4.04028e-06
-3.51372e-06
3.71464e-06
-4.96998e-06
3.29419e-06
-6.14437e-06
2.70857e-06
-7.04125e-06
2.12277e-06
-7.69888e-06
1.61648e-06
-8.17118e-06
1.20702e-06
-8.51154e-06
8.91183e-07
-8.76103e-06
6.47763e-07
-8.94307e-06
4.55284e-07
-9.06842e-06
2.82665e-07
-9.13467e-06
9.7449e-08
-9.11582e-06
-1.16854e-07
-8.98393e-06
-3.79855e-07
-8.69202e-06
-7.4708e-07
-8.14967e-06
-1.30797e-06
-7.21152e-06
-2.2112e-06
-5.6336e-06
-3.66165e-06
-3.24951e-06
-5.64337e-06
-7.0103e-06
-1.30608e-06
5.34635e-06
-2.48566e-06
4.89423e-06
-3.43355e-06
4.24207e-06
-4.16165e-06
3.43668e-06
-4.69412e-06
2.65523e-06
-5.06922e-06
1.99159e-06
-5.32892e-06
1.46672e-06
-5.50671e-06
1.06898e-06
-5.62763e-06
7.68683e-07
-5.70849e-06
5.36145e-07
-5.76135e-06
3.35522e-07
-5.79506e-06
1.31162e-07
-5.80035e-06
-1.11568e-07
-5.75467e-06
-4.25533e-07
-5.63023e-06
-8.7152e-07
-5.38447e-06
-1.55373e-06
-4.94909e-06
-2.64659e-06
-4.10497e-06
-4.50577e-06
-2.46391e-06
-7.28443e-06
-9.47421e-06
-7.25207e-07
6.07156e-06
-1.41733e-06
5.58635e-06
-1.93824e-06
4.76298e-06
-2.33136e-06
3.8298e-06
-2.61372e-06
2.93759e-06
-2.80876e-06
2.18663e-06
-2.93806e-06
1.59601e-06
-3.01826e-06
1.14918e-06
-3.06379e-06
8.1421e-07
-3.08414e-06
5.56497e-07
-3.08732e-06
3.38697e-07
-3.0801e-06
1.23947e-07
-3.06405e-06
-1.27616e-07
-3.02732e-06
-4.62268e-07
-2.96409e-06
-9.34746e-07
-2.858e-06
-1.65983e-06
-2.70504e-06
-2.79954e-06
-2.33658e-06
-4.87423e-06
-1.72416e-06
-7.89685e-06
-1.11984e-05
-2.21048e-07
6.29261e-06
-4.19344e-07
5.78465e-06
-5.5818e-07
4.90181e-06
-6.53818e-07
3.92544e-06
-7.25814e-07
3.00959e-06
-7.7903e-07
2.23985e-06
-8.16269e-07
1.63325e-06
-8.40927e-07
1.17384e-06
-8.57348e-07
8.30631e-07
-8.69167e-07
5.68315e-07
-8.80821e-07
3.50351e-07
-8.96262e-07
1.39388e-07
-9.19563e-07
-1.04315e-07
-9.48295e-07
-4.33535e-07
-9.81218e-07
-9.01824e-07
-1.00588e-06
-1.63516e-06
-1.02634e-06
-2.77909e-06
-9.62521e-07
-4.93804e-06
-8.53262e-07
-8.00611e-06
-1.20516e-05
3.46762e-07
5.94585e-06
5.45974e-07
5.58544e-06
7.48166e-07
4.69962e-06
9.2205e-07
3.75156e-06
1.04566e-06
2.88598e-06
1.12177e-06
2.16374e-06
1.16084e-06
1.59418e-06
1.17295e-06
1.16174e-06
1.16506e-06
8.38516e-07
1.14129e-06
5.92087e-07
1.102e-06
3.8964e-07
1.04542e-06
1.95975e-07
9.64651e-07
-2.35482e-08
8.5639e-07
-3.25275e-07
7.08902e-07
-7.54335e-07
5.23713e-07
-1.44997e-06
3.40049e-07
-2.59543e-06
-7.69912e-08
-4.52101e-06
-1.6066e-07
-7.92244e-06
-1.22123e-05
7.13951e-07
5.2319e-06
1.38405e-06
4.91534e-06
1.96986e-06
4.1138e-06
2.42076e-06
3.30066e-06
2.73329e-06
2.57345e-06
2.92952e-06
1.96751e-06
3.03896e-06
1.48474e-06
3.0866e-06
1.11409e-06
3.08991e-06
8.35206e-07
3.06078e-06
6.21215e-07
3.00347e-06
4.46951e-07
2.9179e-06
2.81544e-07
2.79316e-06
1.01198e-07
2.62658e-06
-1.58697e-07
2.38484e-06
-5.12601e-07
2.0716e-06
-1.13673e-06
1.58881e-06
-2.11264e-06
1.0484e-06
-3.9806e-06
4.19186e-07
-7.29322e-06
-1.17931e-05
9.61235e-07
4.27066e-06
2.12869e-06
3.74788e-06
3.1047e-06
3.13779e-06
3.83568e-06
2.56968e-06
4.3522e-06
2.05692e-06
4.69743e-06
1.62229e-06
4.91118e-06
1.27098e-06
5.02913e-06
9.96137e-07
5.0774e-06
7.86941e-07
5.0775e-06
6.21112e-07
5.03656e-06
4.87895e-07
4.96099e-06
3.57111e-07
4.83656e-06
2.25628e-07
4.68562e-06
-7.76204e-09
4.39086e-06
-2.17832e-07
3.9888e-06
-7.34672e-07
3.30248e-06
-1.42632e-06
2.44535e-06
-3.12347e-06
1.10856e-06
-5.95642e-06
-1.06846e-05
1.04436e-06
3.2263e-06
2.56473e-06
2.22751e-06
3.97673e-06
1.72579e-06
5.09441e-06
1.452e-06
5.93598e-06
1.21535e-06
6.56097e-06
9.97302e-07
7.02096e-06
8.10987e-07
7.35451e-06
6.62585e-07
7.59364e-06
5.47811e-07
7.76023e-06
4.54525e-07
7.87288e-06
3.75252e-07
7.93548e-06
2.94507e-07
7.94621e-06
2.14901e-07
7.8415e-06
9.69436e-08
7.63987e-06
-1.62025e-08
7.27344e-06
-3.68241e-07
6.59348e-06
-7.46357e-07
5.38857e-06
-1.91857e-06
2.94892e-06
-3.51677e-06
-7.73563e-06
3.2263e-06
5.45382e-06
7.17961e-06
8.63161e-06
9.84696e-06
1.08443e-05
1.16552e-05
1.23178e-05
1.28656e-05
1.33202e-05
1.36954e-05
1.39899e-05
1.42048e-05
1.43018e-05
1.42856e-05
1.39173e-05
1.3171e-05
1.12524e-05
7.73563e-06
)
;

boundaryField
{
    movingWall
    {
        type            calculated;
        value           uniform 0;
    }
    movingWallBottom
    {
        type            calculated;
        value           uniform 0;
    }
    fixedWalls
    {
        type            calculated;
        value           uniform 0;
    }
    frontAndBack
    {
        type            empty;
        value           nonuniform 0();
    }
}


// ************************************************************************* //
