/*--------------------------------*- C++ -*----------------------------------*\
| =========                 |                                                 |
| \\      /  F ield         | OpenFOAM: The Open Source CFD Toolbox           |
|  \\    /   O peration     | Version:  4.1                                   |
|   \\  /    A nd           | Web:      www.OpenFOAM.org                      |
|    \\/     M anipulation  |                                                 |
\*---------------------------------------------------------------------------*/
FoamFile
{
    version     2.0;
    format      ascii;
    class       volVectorField;
    location    "6";
    object      U;
}
// * * * * * * * * * * * * * * * * * * * * * * * * * * * * * * * * * * * * * //

dimensions      [0 1 -1 0 0 0 0];

internalField   nonuniform List<vector> 
400
(
(0.0640591 -0.0989524 0)
(0.0779505 -0.0641537 0)
(0.124572 -0.0437935 0)
(0.159487 -0.0342063 0)
(0.186243 -0.0282517 0)
(0.208001 -0.0237577 0)
(0.22559 -0.0201035 0)
(0.240466 -0.0171517 0)
(0.252184 -0.014697 0)
(0.262319 -0.0126986 0)
(0.269869 -0.0108838 0)
(0.276671 -0.00932867 0)
(0.280849 -0.00761662 0)
(0.284369 -0.00597683 0)
(0.284325 -0.00361648 0)
(0.280869 -0.000365679 0)
(0.270156 0.00144744 0)
(0.251101 0.0119095 0)
(0.189055 0.0225858 0)
(0.17261 0.117425 0)
(0.0160649 -0.0521122 0)
(0.0318574 -0.0428183 0)
(0.0652656 -0.0374323 0)
(0.0903419 -0.0320672 0)
(0.110151 -0.0265546 0)
(0.125157 -0.0213415 0)
(0.136059 -0.0168625 0)
(0.144033 -0.0133059 0)
(0.149425 -0.0106736 0)
(0.153446 -0.00855866 0)
(0.155704 -0.00690535 0)
(0.157649 -0.00502523 0)
(0.157623 -0.00334506 0)
(0.157534 0.000265835 0)
(0.153025 0.00333 0)
(0.149657 0.0118378 0)
(0.134923 0.0218701 0)
(0.127461 0.0507546 0)
(0.0656439 0.0944476 0)
(0.0901331 0.164737 0)
(0.0113488 -0.102339 0)
(0.0299611 -0.0943341 0)
(0.0521401 -0.0797241 0)
(0.068983 -0.0653999 0)
(0.0817056 -0.0517023 0)
(0.0905727 -0.0399273 0)
(0.0960886 -0.0305382 0)
(0.099203 -0.0233702 0)
(0.100623 -0.0179966 0)
(0.100987 -0.01387 0)
(0.100419 -0.0105348 0)
(0.0993762 -0.00746635 0)
(0.0970803 -0.00417886 0)
(0.094929 0.00028945 0)
(0.0893444 0.00652118 0)
(0.0851454 0.0181746 0)
(0.0696932 0.0357559 0)
(0.0683155 0.0733736 0)
(0.0132597 0.136347 0)
(0.0498623 0.223134 0)
(0.00713509 -0.115328 0)
(0.0208378 -0.107954 0)
(0.0323976 -0.0897615 0)
(0.0433759 -0.0708686 0)
(0.0513641 -0.0544762 0)
(0.0565119 -0.0410983 0)
(0.0594295 -0.030565 0)
(0.0608093 -0.0225477 0)
(0.0611632 -0.0165449 0)
(0.0608213 -0.0119757 0)
(0.0599153 -0.00825129 0)
(0.0585139 -0.0047178 0)
(0.0563738 -0.000732684 0)
(0.0536936 0.00486549 0)
(0.0492677 0.0126874 0)
(0.0452773 0.0258019 0)
(0.0331042 0.047382 0)
(0.0372156 0.0866267 0)
(-0.00638063 0.155873 0)
(0.0322181 0.251213 0)
(0.00267672 -0.125404 0)
(0.00906004 -0.116763 0)
(0.0116011 -0.0982373 0)
(0.0159302 -0.0783115 0)
(0.0191885 -0.0598209 0)
(0.0212658 -0.0444246 0)
(0.022345 -0.0324125 0)
(0.0227401 -0.0233657 0)
(0.0226698 -0.0166496 0)
(0.0222853 -0.0115748 0)
(0.021619 -0.00742296 0)
(0.0206588 -0.00341612 0)
(0.0192795 0.00121631 0)
(0.0174722 0.00749318 0)
(0.0148462 0.0164997 0)
(0.012543 0.0308578 0)
(0.00436306 0.0538974 0)
(0.0123131 0.0951178 0)
(-0.0192545 0.163572 0)
(0.0175634 0.25237 0)
(-0.00551635 -0.125937 0)
(-0.0059722 -0.114888 0)
(-0.0113718 -0.0974069 0)
(-0.0132422 -0.0779179 0)
(-0.0146389 -0.0595554 0)
(-0.0157925 -0.0441893 0)
(-0.0167018 -0.032151 0)
(-0.0173919 -0.0231205 0)
(-0.0178702 -0.016405 0)
(-0.0182239 -0.0112647 0)
(-0.0185106 -0.0069609 0)
(-0.0188137 -0.00273104 0)
(-0.0192547 0.00219978 0)
(-0.0197991 0.00882341 0)
(-0.0204337 0.0183753 0)
(-0.0209766 0.0330834 0)
(-0.0238949 0.0560383 0)
(-0.014107 0.0975797 0)
(-0.0325557 0.160823 0)
(0.00822873 0.239227 0)
(-0.0118279 -0.113759 0)
(-0.0219347 -0.105503 0)
(-0.0357515 -0.0905123 0)
(-0.0446172 -0.0727859 0)
(-0.0507987 -0.0558247 0)
(-0.0553397 -0.0415846 0)
(-0.0584894 -0.0304158 0)
(-0.0606625 -0.0219993 0)
(-0.0620057 -0.015749 0)
(-0.0627601 -0.0109761 0)
(-0.063101 -0.00689609 0)
(-0.0631815 -0.00278009 0)
(-0.0630752 0.00214555 0)
(-0.0626864 0.00875582 0)
(-0.0621303 0.0177757 0)
(-0.0611687 0.0314402 0)
(-0.059036 0.0539339 0)
(-0.0485627 0.0948002 0)
(-0.0503844 0.155639 0)
(-0.00662622 0.212338 0)
(-0.0201036 -0.092908 0)
(-0.0387568 -0.0857603 0)
(-0.0618363 -0.0751455 0)
(-0.0788014 -0.0610534 0)
(-0.0905205 -0.047389 0)
(-0.0992656 -0.0356968 0)
(-0.105321 -0.0263868 0)
(-0.109826 -0.0193513 0)
(-0.112924 -0.0139936 0)
(-0.115146 -0.00978621 0)
(-0.116724 -0.00611721 0)
(-0.117849 -0.00230377 0)
(-0.118586 0.00233752 0)
(-0.118797 0.00837985 0)
(-0.118191 0.0171343 0)
(-0.115229 0.0307766 0)
(-0.10763 0.0525623 0)
(-0.090953 0.0882292 0)
(-0.0675913 0.137338 0)
(-0.0192834 0.17245 0)
(-0.0266318 -0.060454 0)
(-0.0542946 -0.0562924 0)
(-0.0877487 -0.0500886 0)
(-0.115156 -0.0407326 0)
(-0.13463 -0.0315303 0)
(-0.149952 -0.0240378 0)
(-0.160537 -0.0180385 0)
(-0.168731 -0.0132951 0)
(-0.174632 -0.00956261 0)
(-0.179358 -0.00658067 0)
(-0.182637 -0.00382933 0)
(-0.184957 -0.000826956 0)
(-0.186233 0.00289104 0)
(-0.185851 0.007616 0)
(-0.182698 0.0141728 0)
(-0.174782 0.024213 0)
(-0.158376 0.0404568 0)
(-0.129199 0.0657803 0)
(-0.0805606 0.0992718 0)
(-0.0454767 0.114844 0)
(-0.0313977 -0.0211263 0)
(-0.0641334 -0.0194088 0)
(-0.104603 -0.017593 0)
(-0.139905 -0.014785 0)
(-0.164716 -0.0120284 0)
(-0.185502 -0.00915314 0)
(-0.200957 -0.00663753 0)
(-0.213213 -0.00466136 0)
(-0.221974 -0.00310267 0)
(-0.228494 -0.00186697 0)
(-0.232539 -0.000758284 0)
(-0.234654 0.000297576 0)
(-0.235121 0.00178153 0)
(-0.233145 0.00339823 0)
(-0.227663 0.00593803 0)
(-0.215336 0.00970166 0)
(-0.192406 0.0159969 0)
(-0.154464 0.0256081 0)
(-0.0996435 0.0379031 0)
(-0.0498336 0.0421905 0)
(-0.0312592 0.0219754 0)
(-0.0638941 0.0202886 0)
(-0.104217 0.0186476 0)
(-0.139407 0.0160186 0)
(-0.164132 0.0133285 0)
(-0.184719 0.0104847 0)
(-0.200053 0.00785566 0)
(-0.21219 0.00573017 0)
(-0.220867 0.00395587 0)
(-0.227346 0.00248753 0)
(-0.231371 0.00112529 0)
(-0.233558 -0.00020487 0)
(-0.233923 -0.00193424 0)
(-0.232035 -0.0038469 0)
(-0.226548 -0.00666352 0)
(-0.214336 -0.0108099 0)
(-0.191509 -0.017573 0)
(-0.153756 -0.0278798 0)
(-0.0991111 -0.041011 0)
(-0.0492088 -0.0462264 0)
(-0.0264353 0.0610868 0)
(-0.0539045 0.0570096 0)
(-0.0871726 0.0509895 0)
(-0.114434 0.0418499 0)
(-0.133706 0.0327536 0)
(-0.148847 0.0252068 0)
(-0.159191 0.0191072 0)
(-0.167128 0.0142247 0)
(-0.172744 0.0102932 0)
(-0.177212 0.00710963 0)
(-0.180263 0.00415315 0)
(-0.182436 0.000948001 0)
(-0.183642 -0.00295898 0)
(-0.18329 -0.00790559 0)
(-0.180229 -0.0146519 0)
(-0.1725 -0.0249352 0)
(-0.156404 -0.0414889 0)
(-0.127668 -0.0673068 0)
(-0.0798126 -0.101453 0)
(-0.0444197 -0.117477 0)
(-0.0199195 0.093293 0)
(-0.0384181 0.0862885 0)
(-0.0613935 0.0758855 0)
(-0.0782632 0.061979 0)
(-0.0898206 0.0483762 0)
(-0.098397 0.0366309 0)
(-0.104235 0.0271983 0)
(-0.108515 0.0199951 0)
(-0.111405 0.0144614 0)
(-0.113403 0.0100809 0)
(-0.114785 0.00623818 0)
(-0.115727 0.0022829 0)
(-0.11633 -0.00248365 0)
(-0.11643 -0.00862936 0)
(-0.115782 -0.0174519 0)
(-0.112914 -0.0311844 0)
(-0.105538 -0.0531076 0)
(-0.0892409 -0.0890969 0)
(-0.0669218 -0.138775 0)
(-0.0186831 -0.174581 0)
(-0.0116927 0.113951 0)
(-0.0216738 0.105909 0)
(-0.0353959 0.0911576 0)
(-0.0441623 0.0736032 0)
(-0.0501997 0.0566807 0)
(-0.0545934 0.0423648 0)
(-0.057595 0.0310587 0)
(-0.0596296 0.0224723 0)
(-0.0608509 0.0160438 0)
(-0.061505 0.0111012 0)
(-0.0617642 0.00686646 0)
(-0.0617801 0.00262445 0)
(-0.0616272 -0.00240388 0)
(-0.0611989 -0.0090995 0)
(-0.0606156 -0.0182033 0)
(-0.059647 -0.0319248 0)
(-0.0576137 -0.0544025 0)
(-0.0471434 -0.0952576 0)
(-0.0495922 -0.156218 0)
(-0.00623093 -0.213642 0)
(-0.00539346 0.125965 0)
(-0.00576444 0.11517 0)
(-0.0110648 0.0979336 0)
(-0.0128234 0.0786074 0)
(-0.0140884 0.0602801 0)
(-0.0151143 0.0448464 0)
(-0.0159105 0.0326799 0)
(-0.0165099 0.0234943 0)
(-0.0169168 0.0166221 0)
(-0.0172248 0.0113339 0)
(-0.0174858 0.00689661 0)
(-0.0177814 0.00255683 0)
(-0.0182291 -0.00246164 0)
(-0.0187915 -0.00915849 0)
(-0.01946 -0.0187705 0)
(-0.0200289 -0.0335471 0)
(-0.0230636 -0.0565919 0)
(-0.0132531 -0.0981602 0)
(-0.0320418 -0.161406 0)
(0.0084245 -0.240161 0)
(0.00274204 0.125318 0)
(0.00921006 0.116951 0)
(0.0118639 0.0986659 0)
(0.0163119 0.078889 0)
(0.0197047 0.0604318 0)
(0.0219083 0.0449775 0)
(0.0230921 0.0328561 0)
(0.0235636 0.0236785 0)
(0.023542 0.0168291 0)
(0.0231791 0.011627 0)
(0.0225113 0.00736197 0)
(0.0215318 0.00326087 0)
(0.0201151 -0.00144555 0)
(0.0182656 -0.00778604 0)
(0.015582 -0.016843 0)
(0.0132187 -0.0312366 0)
(0.00493242 -0.0542854 0)
(0.0129251 -0.0954274 0)
(-0.0189081 -0.163895 0)
(0.0177248 -0.252916 0)
(0.00720252 0.115133 0)
(0.0209395 0.108009 0)
(0.0325982 0.0900625 0)
(0.0437022 0.0712985 0)
(0.0518437 0.0549388 0)
(0.0571333 0.0415271 0)
(0.060164 0.030918 0)
(0.061622 0.0228025 0)
(0.0620181 0.016696 0)
(0.0616881 0.0120264 0)
(0.0607662 0.0082121 0)
(0.0593296 0.00459768 0)
(0.0571294 0.000550876 0)
(0.0543863 -0.00509602 0)
(0.0498751 -0.0129582 0)
(0.0458079 -0.0261093 0)
(0.0335179 -0.0476814 0)
(0.0375581 -0.0869213 0)
(-0.00611713 -0.156274 0)
(0.0322975 -0.251474 0)
(0.0113578 0.10214 0)
(0.0299586 0.0943143 0)
(0.0522328 0.0798961 0)
(0.0692195 0.0656733 0)
(0.0820893 0.0520282 0)
(0.0911098 0.0402452 0)
(0.0967575 0.0308092 0)
(0.0999699 0.0235735 0)
(0.101446 0.0181288 0)
(0.101829 0.0139323 0)
(0.101241 0.0105351 0)
(0.100158 0.00740874 0)
(0.0977937 0.00407572 0)
(0.0955749 -0.000433705 0)
(0.0898761 -0.0066966 0)
(0.0856008 -0.0183768 0)
(0.0700162 -0.0359431 0)
(0.0685703 -0.0735718 0)
(0.0133916 -0.136487 0)
(0.0499514 -0.223303 0)
(0.0160041 0.0519443 0)
(0.0317395 0.0427247 0)
(0.0652248 0.0374753 0)
(0.0903938 0.0322018 0)
(0.110331 0.0267187 0)
(0.125479 0.0215035 0)
(0.136507 0.0170044 0)
(0.144594 0.013414 0)
(0.150055 0.0107493 0)
(0.154126 0.00859778 0)
(0.15638 0.00691861 0)
(0.158316 0.00500363 0)
(0.15823 0.00330747 0)
(0.158083 -0.000338537 0)
(0.153478 -0.00339604 0)
(0.150046 -0.0119425 0)
(0.135197 -0.0219524 0)
(0.127661 -0.0508445 0)
(0.0657655 -0.0945382 0)
(0.0901917 -0.164808 0)
(0.0639941 0.0989242 0)
(0.0778487 0.0641153 0)
(0.124428 0.0437673 0)
(0.159379 0.0342006 0)
(0.186199 0.0282611 0)
(0.208055 0.0237715 0)
(0.225729 0.0201224 0)
(0.240696 0.0171678 0)
(0.252469 0.0147169 0)
(0.262658 0.0127121 0)
(0.270221 0.0109019 0)
(0.277038 0.00933462 0)
(0.281194 0.00762838 0)
(0.284697 0.0059692 0)
(0.2846 0.00362201 0)
(0.281104 0.000353131 0)
(0.270332 -0.00144606 0)
(0.25123 -0.0119315 0)
(0.189112 -0.0225901 0)
(0.172636 -0.11742 0)
)
;

boundaryField
{
    movingWall
    {
        type            fixedValue;
        value           uniform (1 0 0);
    }
    movingWallBottom
    {
        type            fixedValue;
        value           uniform (1 0 0);
    }
    fixedWalls
    {
        type            noSlip;
    }
    frontAndBack
    {
        type            empty;
    }
}


// ************************************************************************* //
