/*--------------------------------*- C++ -*----------------------------------*\
| =========                 |                                                 |
| \\      /  F ield         | OpenFOAM: The Open Source CFD Toolbox           |
|  \\    /   O peration     | Version:  4.1                                   |
|   \\  /    A nd           | Web:      www.OpenFOAM.org                      |
|    \\/     M anipulation  |                                                 |
\*---------------------------------------------------------------------------*/
FoamFile
{
    version     2.0;
    format      ascii;
    class       volScalarField;
    location    "1";
    object      epsilon;
}
// * * * * * * * * * * * * * * * * * * * * * * * * * * * * * * * * * * * * * //

dimensions      [0 2 -3 0 0 0 0];

internalField   nonuniform List<scalar> 
400
(
0.0415865
0.0834721
0.124531
0.150137
0.166115
0.17615
0.182505
0.185949
0.187732
0.187569
0.186795
0.185104
0.182537
0.180448
0.177793
0.178237
0.179698
0.182787
0.194426
0.163974
0.00411224
0.00641183
0.00998232
0.0124932
0.0143874
0.0159612
0.017336
0.0185043
0.0195084
0.0202971
0.0208776
0.0213104
0.0214189
0.0215233
0.0214763
0.0220144
0.0254118
0.0387317
0.0714543
0.11647
0.00287597
0.00163787
0.00186282
0.0021424
0.00239919
0.00264111
0.00287784
0.00310865
0.00333464
0.00354701
0.00373342
0.00387615
0.0039056
0.00385044
0.00368828
0.00364891
0.00452892
0.010206
0.0308729
0.0815521
0.00244794
0.0012009
0.00111883
0.00115413
0.00120546
0.0012587
0.00131688
0.00138533
0.00147013
0.00157501
0.00169603
0.00181157
0.0018583
0.00179625
0.00166013
0.00154403
0.00196089
0.00523675
0.0199136
0.0639486
0.00228301
0.00111177
0.00100197
0.000994816
0.0010048
0.00102118
0.00104766
0.00109251
0.00116607
0.0012772
0.00142206
0.00156687
0.00163679
0.00158349
0.00146521
0.00134716
0.0016435
0.00398338
0.014988
0.0532185
0.0020652
0.00107827
0.000980675
0.00096943
0.000970738
0.000979511
0.00100198
0.00104898
0.0011335
0.00126657
0.00144773
0.00163836
0.00173332
0.00174087
0.00171194
0.00162745
0.00186474
0.00417529
0.0146609
0.0454455
0.00189954
0.00105235
0.000977178
0.000971468
0.000974823
0.000985411
0.00101322
0.00107318
0.00118353
0.00136077
0.00160489
0.00185061
0.00203276
0.00225144
0.00244738
0.00252738
0.00285011
0.00529328
0.0155333
0.039012
0.00174862
0.00102947
0.000977354
0.000981775
0.000991918
0.001009
0.00104658
0.00112358
0.00126296
0.00148465
0.00178766
0.0021239
0.00251004
0.00306364
0.00364264
0.00422161
0.00516413
0.00816414
0.0177094
0.0326567
0.00162048
0.00101049
0.000977274
0.000991455
0.00100832
0.00103225
0.00107948
0.00117223
0.00133711
0.00159534
0.00194008
0.0023203
0.00281164
0.00352638
0.00455833
0.00609206
0.00808416
0.0115564
0.0177995
0.0251157
0.00153396
0.000999279
0.000977036
0.000996589
0.00101727
0.00104518
0.00109789
0.00119932
0.00137759
0.00165326
0.00201396
0.00239741
0.00287117
0.00354363
0.00469895
0.00648281
0.00872468
0.0115239
0.0130471
0.0125305
0.00153402
0.00099926
0.000976997
0.000996545
0.00101724
0.00104518
0.00109793
0.00119944
0.00137779
0.00165349
0.002014
0.00239704
0.00287066
0.00354353
0.00470032
0.0064853
0.00872802
0.0115264
0.0130495
0.0125311
0.00162056
0.00101029
0.000977027
0.000991197
0.0010081
0.00103214
0.00107958
0.00117274
0.00133832
0.00159759
0.00194332
0.00232414
0.00281663
0.0035325
0.00456636
0.00609986
0.00809389
0.011567
0.0178081
0.0251193
0.00174872
0.00102917
0.000976976
0.00098138
0.000991573
0.00100878
0.00104661
0.00112408
0.00126425
0.00148713
0.00179173
0.00212969
0.00251908
0.00307235
0.00364973
0.00422694
0.00517354
0.00817421
0.0177196
0.0326601
0.00189962
0.00105193
0.000976738
0.000970909
0.000974306
0.000985016
0.00101307
0.00107348
0.00118459
0.00136291
0.00160831
0.00185499
0.00203811
0.00225639
0.00244929
0.00252885
0.00285635
0.00530223
0.0155429
0.0390125
0.00206521
0.00107766
0.000979955
0.0009688
0.000970147
0.000979031
0.00100171
0.00104904
0.00113409
0.00126786
0.00144993
0.00164076
0.00173533
0.00174237
0.00171159
0.00162707
0.00186677
0.00417912
0.0146607
0.045446
0.00228273
0.00111101
0.00100104
0.000993833
0.00100387
0.00102038
0.00104707
0.00109226
0.00116633
0.00127812
0.00142323
0.00156797
0.00163716
0.00158319
0.00146429
0.00134652
0.00164342
0.00398404
0.014992
0.0532186
0.00244755
0.00119998
0.00111772
0.00115299
0.00120439
0.00125778
0.00131615
0.00138486
0.00147003
0.00157537
0.00169673
0.00181214
0.00185814
0.00179525
0.00165862
0.00154309
0.00196056
0.00523759
0.0199131
0.0639491
0.00287533
0.00163671
0.00186152
0.0021411
0.00239798
0.00264005
0.00287698
0.00310802
0.00333427
0.00354686
0.00373347
0.00387607
0.00390495
0.00384911
0.00368635
0.00364781
0.00452789
0.0102058
0.0308743
0.0815538
0.00411128
0.00640973
0.00997961
0.0124903
0.0143846
0.0159586
0.0173336
0.0185021
0.0195065
0.0202954
0.0208761
0.0213089
0.0214171
0.021521
0.0214737
0.0220122
0.0254103
0.0387313
0.0714557
0.116471
0.0415835
0.0834679
0.124526
0.150131
0.16611
0.176146
0.182502
0.185947
0.18773
0.187568
0.186795
0.185106
0.182542
0.180454
0.177796
0.17824
0.179701
0.182789
0.194428
0.163976
)
;

boundaryField
{
    movingWall
    {
        Cmu             0.09;
        kappa           0.41;
        E               9.8;
        type            epsilonWallFunction;
        value           nonuniform List<scalar> 
20
(
0.0415835
0.0834679
0.124526
0.150131
0.16611
0.176146
0.182502
0.185947
0.18773
0.187568
0.186795
0.185106
0.182542
0.180454
0.177796
0.17824
0.179701
0.182789
0.194428
0.163976
)
;
    }
    movingWallBottom
    {
        Cmu             0.09;
        kappa           0.41;
        E               9.8;
        type            epsilonWallFunction;
        value           nonuniform List<scalar> 
20
(
0.0415865
0.0834721
0.124531
0.150137
0.166115
0.17615
0.182505
0.185949
0.187732
0.187569
0.186795
0.185104
0.182537
0.180448
0.177793
0.178237
0.179698
0.182787
0.194426
0.163974
)
;
    }
    fixedWalls
    {
        Cmu             0.09;
        kappa           0.41;
        E               9.8;
        type            epsilonWallFunction;
        value           nonuniform List<scalar> 
40
(
0.0415865
0.00411224
0.00287597
0.00244794
0.00228301
0.0020652
0.00189954
0.00174862
0.00162048
0.00153396
0.00153402
0.00162056
0.00174872
0.00189962
0.00206521
0.00228273
0.00244755
0.00287533
0.00411128
0.0415835
0.163974
0.11647
0.0815521
0.0639486
0.0532185
0.0454455
0.039012
0.0326567
0.0251157
0.0125305
0.0125311
0.0251193
0.0326601
0.0390125
0.045446
0.0532186
0.0639491
0.0815538
0.116471
0.163976
)
;
    }
    frontAndBack
    {
        type            empty;
    }
}


// ************************************************************************* //
