/*--------------------------------*- C++ -*----------------------------------*\
| =========                 |                                                 |
| \\      /  F ield         | OpenFOAM: The Open Source CFD Toolbox           |
|  \\    /   O peration     | Version:  4.1                                   |
|   \\  /    A nd           | Web:      www.OpenFOAM.org                      |
|    \\/     M anipulation  |                                                 |
\*---------------------------------------------------------------------------*/
FoamFile
{
    version     2.0;
    format      ascii;
    class       volScalarField;
    location    "1";
    object      k;
}
// * * * * * * * * * * * * * * * * * * * * * * * * * * * * * * * * * * * * * //

dimensions      [0 2 -2 0 0 0 0];

internalField   nonuniform List<scalar> 
400
(
0.00406655
0.00647124
0.00844906
0.00957073
0.0102382
0.0106464
0.0109007
0.0110372
0.0111068
0.0111
0.0110689
0.0110015
0.0108983
0.0108161
0.0107106
0.0107293
0.0107885
0.0109123
0.0113716
0.0101511
0.000868312
0.00126171
0.00161171
0.00183148
0.001996
0.00213942
0.00227426
0.00240013
0.00251778
0.00262362
0.00271364
0.00279162
0.00283291
0.00285992
0.00284722
0.00287443
0.00306983
0.00387439
0.00599088
0.00808141
0.000683747
0.00092152
0.00105655
0.0011234
0.00116617
0.00120153
0.0012402
0.00128678
0.00134291
0.00140588
0.00146579
0.00150865
0.00150185
0.00144914
0.00133131
0.00117267
0.001216
0.00170021
0.0035173
0.00637236
0.000614034
0.000910996
0.00104504
0.0011069
0.00113733
0.00115651
0.00117712
0.00120669
0.00124837
0.0012987
0.00134096
0.00135104
0.00129395
0.0011575
0.000989067
0.000849757
0.000891773
0.00126066
0.00274323
0.00541862
0.000586182
0.000913414
0.00107238
0.00114418
0.00117641
0.00119331
0.00120953
0.00123419
0.00127072
0.00131357
0.00133986
0.00132255
0.00121176
0.00101319
0.000841537
0.000748766
0.000805672
0.00115383
0.00239993
0.00479424
0.000548316
0.000917579
0.00109631
0.00117967
0.00121805
0.00123811
0.00125664
0.00128395
0.00132274
0.00135932
0.00136937
0.00130086
0.00110588
0.000911218
0.000784194
0.000723702
0.000814447
0.0011743
0.00232298
0.00431488
0.000518649
0.000916809
0.00111193
0.00120772
0.00125455
0.00128075
0.00130496
0.00133821
0.00138122
0.00140761
0.0013919
0.0012493
0.0010145
0.000895364
0.000867926
0.00089344
0.000957544
0.00129907
0.00237733
0.0038973
0.000490826
0.000914507
0.00112224
0.00122905
0.00128442
0.00131781
0.00134909
0.00138963
0.00143549
0.00145329
0.00139815
0.00118261
0.00101534
0.000991769
0.00107609
0.00121184
0.00130296
0.00162373
0.00254937
0.00346192
0.000466543
0.000912013
0.00112862
0.00124356
0.00130602
0.00134585
0.00138382
0.00143179
0.00147852
0.00148917
0.00139804
0.0011415
0.00103872
0.0010441
0.00122813
0.00149729
0.00169968
0.00203363
0.00255328
0.00290836
0.000449765
0.000910368
0.00113158
0.00125064
0.00131684
0.00136021
0.00140193
0.001454
0.00150041
0.00150656
0.00139352
0.0011106
0.00100783
0.00101507
0.00122274
0.00152964
0.00177434
0.00201013
0.0021149
0.00183553
0.000449777
0.000910372
0.00113158
0.00125064
0.00131685
0.00136022
0.00140194
0.00145399
0.00150026
0.00150628
0.00139299
0.00111011
0.00100747
0.00101484
0.00122285
0.00152986
0.00177452
0.00201019
0.00211489
0.00183559
0.000466558
0.000912007
0.00112859
0.00124353
0.001306
0.00134585
0.00138385
0.00143177
0.00147808
0.00148827
0.00139625
0.00114
0.00103815
0.00104413
0.00122915
0.00149839
0.00170082
0.0020342
0.00255358
0.00290862
0.000490845
0.000914482
0.00112218
0.00122897
0.00128436
0.00131777
0.00134907
0.00138955
0.0014349
0.00145203
0.0013957
0.00118005
0.00101447
0.000991698
0.00107698
0.00121274
0.00130421
0.00162466
0.00254961
0.00346214
0.000518664
0.000916746
0.0011118
0.00120757
0.0012544
0.00128063
0.00130486
0.00133803
0.00138067
0.00140636
0.00138946
0.00124638
0.00101279
0.000894851
0.000868046
0.000893957
0.000958217
0.00129956
0.00237738
0.00389734
0.000548317
0.000917451
0.00109609
0.00117942
0.0012178
0.00123788
0.00125644
0.00128372
0.00132231
0.00135818
0.00136746
0.00129809
0.00110304
0.000909982
0.000783627
0.000723668
0.000814624
0.00117457
0.00232313
0.00431492
0.000586133
0.000913198
0.00107208
0.00114384
0.00117608
0.00119301
0.00120927
0.00123392
0.00127032
0.00131275
0.0013385
0.00132033
0.00120925
0.00101095
0.000840484
0.000748434
0.000805572
0.00115402
0.00239985
0.00479424
0.000613966
0.000910738
0.0010447
0.00110654
0.00113698
0.00115619
0.00117685
0.00120644
0.00124804
0.00129816
0.00133992
0.00134947
0.00129204
0.00115554
0.000987674
0.000849126
0.000891388
0.00126052
0.00274306
0.00541866
0.000683643
0.000921209
0.00105615
0.00112298
0.00116577
0.00120118
0.00123989
0.00128651
0.00134262
0.00140547
0.00146516
0.00150774
0.00150067
0.00144783
0.00133004
0.00117197
0.00121552
0.00169999
0.00351735
0.00637245
0.000868176
0.00126132
0.00161124
0.001831
0.00199556
0.00213904
0.00227393
0.00239985
0.00251756
0.00262342
0.00271344
0.00279136
0.00283257
0.00285946
0.00284671
0.00287397
0.00306949
0.00387421
0.00599088
0.00808143
0.00406635
0.00647102
0.0084488
0.00957049
0.010238
0.0106462
0.0109006
0.0110371
0.0111067
0.0111
0.0110689
0.0110016
0.0108985
0.0108164
0.0107107
0.0107294
0.0107886
0.0109124
0.0113717
0.0101512
)
;

boundaryField
{
    movingWall
    {
        type            kqRWallFunction;
        value           nonuniform List<scalar> 
20
(
0.00406635
0.00647102
0.0084488
0.00957049
0.010238
0.0106462
0.0109006
0.0110371
0.0111067
0.0111
0.0110689
0.0110016
0.0108985
0.0108164
0.0107107
0.0107294
0.0107886
0.0109124
0.0113717
0.0101512
)
;
    }
    movingWallBottom
    {
        type            kqRWallFunction;
        value           nonuniform List<scalar> 
20
(
0.00406655
0.00647124
0.00844906
0.00957073
0.0102382
0.0106464
0.0109007
0.0110372
0.0111068
0.0111
0.0110689
0.0110015
0.0108983
0.0108161
0.0107106
0.0107293
0.0107885
0.0109123
0.0113716
0.0101511
)
;
    }
    fixedWalls
    {
        type            kqRWallFunction;
        value           nonuniform List<scalar> 
40
(
0.00406655
0.000868312
0.000683747
0.000614034
0.000586182
0.000548316
0.000518649
0.000490826
0.000466543
0.000449765
0.000449777
0.000466558
0.000490845
0.000518664
0.000548317
0.000586133
0.000613966
0.000683643
0.000868176
0.00406635
0.0101511
0.00808141
0.00637236
0.00541862
0.00479424
0.00431488
0.0038973
0.00346192
0.00290836
0.00183553
0.00183559
0.00290862
0.00346214
0.00389734
0.00431492
0.00479424
0.00541866
0.00637245
0.00808143
0.0101512
)
;
    }
    frontAndBack
    {
        type            empty;
    }
}


// ************************************************************************* //
