/*--------------------------------*- C++ -*----------------------------------*\
| =========                 |                                                 |
| \\      /  F ield         | OpenFOAM: The Open Source CFD Toolbox           |
|  \\    /   O peration     | Version:  4.1                                   |
|   \\  /    A nd           | Web:      www.OpenFOAM.org                      |
|    \\/     M anipulation  |                                                 |
\*---------------------------------------------------------------------------*/
FoamFile
{
    version     2.0;
    format      ascii;
    class       volScalarField;
    location    "1";
    object      nut;
}
// * * * * * * * * * * * * * * * * * * * * * * * * * * * * * * * * * * * * * //

dimensions      [0 2 -1 0 0 0 0];

internalField   nonuniform List<scalar> 
400
(
3.57883e-05
4.51519e-05
5.15917e-05
5.49093e-05
5.67914e-05
5.79114e-05
5.85967e-05
5.89609e-05
5.91398e-05
5.91191e-05
5.90316e-05
5.88478e-05
5.85614e-05
5.83491e-05
5.80704e-05
5.8128e-05
5.82934e-05
5.86315e-05
5.98593e-05
5.65583e-05
1.65012e-05
2.23449e-05
2.34197e-05
2.41641e-05
2.49218e-05
2.58088e-05
2.68518e-05
2.80183e-05
2.92454e-05
3.05217e-05
3.17443e-05
3.29127e-05
3.37218e-05
3.42012e-05
3.39723e-05
3.37782e-05
3.3376e-05
3.48805e-05
4.52059e-05
5.04663e-05
1.46301e-05
4.66631e-05
5.39325e-05
5.30166e-05
5.1015e-05
4.91957e-05
4.81017e-05
4.79381e-05
4.86733e-05
5.01506e-05
5.17941e-05
5.2847e-05
5.19765e-05
4.90857e-05
4.32489e-05
3.39178e-05
2.93844e-05
2.54912e-05
3.60649e-05
4.48134e-05
1.3862e-05
6.21968e-05
8.78508e-05
9.55446e-05
9.65749e-05
9.56349e-05
9.46973e-05
9.45985e-05
9.54051e-05
9.63783e-05
9.54204e-05
9.06831e-05
8.10894e-05
6.71298e-05
5.30337e-05
4.20898e-05
3.65004e-05
2.73133e-05
3.4011e-05
4.13228e-05
1.35456e-05
6.75403e-05
0.000103297
0.000118437
0.000123959
0.0001255
0.000125677
0.000125482
0.000124629
0.000121587
0.000113617
0.000100469
8.07384e-05
5.83454e-05
4.34998e-05
3.74556e-05
3.55458e-05
3.00799e-05
3.45856e-05
3.88704e-05
1.31022e-05
7.02753e-05
0.000110302
0.000129196
0.000137552
0.000140847
0.000141841
0.00014144
0.000138923
0.000131297
0.000116573
9.29595e-05
6.35003e-05
4.2926e-05
3.23296e-05
2.89638e-05
3.20149e-05
2.97244e-05
3.31265e-05
3.68714e-05
1.27451e-05
7.1885e-05
0.000113874
0.000135129
0.00014531
0.000149815
0.000151264
0.000150182
0.000145073
0.000131045
0.000108646
7.59035e-05
4.55681e-05
3.20466e-05
2.77016e-05
2.84252e-05
2.89533e-05
2.86936e-05
3.27458e-05
3.50407e-05
1.23995e-05
7.31144e-05
0.000115975
0.000138474
0.000149687
0.000154902
0.000156513
0.000154681
0.000146844
0.000128033
9.84155e-05
5.92644e-05
3.69646e-05
2.88952e-05
2.86101e-05
3.1308e-05
2.95875e-05
2.90641e-05
3.30297e-05
3.30296e-05
1.20888e-05
7.40819e-05
0.000117306
0.00014038
0.000152246
0.000157925
0.000159658
0.000157395
0.00014714
0.000125105
9.06694e-05
5.05422e-05
3.45369e-05
2.78226e-05
2.97803e-05
3.31201e-05
3.21619e-05
3.2208e-05
3.29633e-05
3.03105e-05
1.18686e-05
7.46431e-05
0.000117952
0.000141251
0.000153418
0.000159318
0.000161115
0.000158648
0.000147076
0.00012356
8.67798e-05
4.63035e-05
3.18391e-05
2.61688e-05
2.86359e-05
3.2483e-05
3.24764e-05
3.15567e-05
3.0854e-05
2.41989e-05
1.18688e-05
7.46453e-05
0.000117956
0.000141257
0.000153423
0.000159321
0.000161111
0.00015863
0.000147025
0.000123496
8.6712e-05
4.62696e-05
3.18221e-05
2.61577e-05
2.86325e-05
3.24802e-05
3.24706e-05
3.15517e-05
3.08478e-05
2.41994e-05
1.2089e-05
7.40955e-05
0.00011733
0.00014041
0.000152274
0.000157942
0.000159648
0.000157321
0.00014692
0.000124779
9.02865e-05
5.0326e-05
3.44375e-05
2.77761e-05
2.9777e-05
3.31261e-05
3.21663e-05
3.21967e-05
3.29552e-05
3.03117e-05
1.23997e-05
7.31315e-05
0.000116007
0.000138512
0.000149723
0.000154926
0.000156504
0.000154594
0.000146573
0.000127599
9.78482e-05
5.88469e-05
3.67687e-05
2.88091e-05
2.86021e-05
3.13152e-05
2.95902e-05
2.90617e-05
3.30168e-05
3.30305e-05
1.27452e-05
7.19044e-05
0.000113899
0.000135172
0.000145352
0.000149846
0.000151262
0.0001501
0.000144828
0.000130608
0.000108035
7.53707e-05
4.5295e-05
3.19396e-05
2.76878e-05
2.84415e-05
2.89307e-05
2.86668e-05
3.2727e-05
3.50408e-05
1.31022e-05
7.02953e-05
0.000110339
0.000129225
0.00013758
0.000140866
0.000141836
0.000141381
0.00013876
0.000130945
0.000116071
9.24285e-05
6.31024e-05
4.27729e-05
3.22896e-05
2.89677e-05
3.19937e-05
2.97107e-05
3.31309e-05
3.68715e-05
1.3545e-05
6.75543e-05
0.000103334
0.000118484
0.000124005
0.000125536
0.000125693
0.000125457
0.000124522
0.000121349
0.000113292
0.000100063
8.03862e-05
5.80992e-05
4.34184e-05
3.74401e-05
3.55389e-05
3.00846e-05
3.45741e-05
3.88704e-05
1.38612e-05
6.22093e-05
8.78806e-05
9.55763e-05
9.66008e-05
9.56536e-05
9.47064e-05
9.45902e-05
9.53624e-05
9.62751e-05
9.52326e-05
9.04429e-05
8.08564e-05
6.69406e-05
5.29326e-05
4.20528e-05
3.64751e-05
2.7303e-05
3.40074e-05
4.1323e-05
1.4629e-05
4.66644e-05
5.39296e-05
5.30093e-05
5.10059e-05
4.91861e-05
4.8092e-05
4.79273e-05
4.86576e-05
5.01238e-05
5.17485e-05
5.2784e-05
5.1904e-05
4.90139e-05
4.3189e-05
3.38876e-05
2.93678e-05
2.54852e-05
3.60643e-05
4.48137e-05
1.64999e-05
2.23386e-05
2.34125e-05
2.41573e-05
2.49159e-05
2.58039e-05
2.68478e-05
2.8015e-05
2.92431e-05
3.05197e-05
3.17419e-05
3.29089e-05
3.37165e-05
3.41939e-05
3.39644e-05
3.37709e-05
3.33706e-05
3.48777e-05
4.5205e-05
5.04664e-05
3.57874e-05
4.51511e-05
5.15909e-05
5.49086e-05
5.67908e-05
5.7911e-05
5.85964e-05
5.89607e-05
5.91396e-05
5.9119e-05
5.90315e-05
5.88481e-05
5.85619e-05
5.83497e-05
5.80708e-05
5.81283e-05
5.82937e-05
5.86318e-05
5.98595e-05
5.65585e-05
)
;

boundaryField
{
    movingWall
    {
        type            nutkWallFunction;
        Cmu             0.09;
        kappa           0.41;
        E               9.8;
        value           nonuniform List<scalar> 
20
(
0
0
7.17326e-07
1.26082e-06
1.56696e-06
1.74855e-06
1.85966e-06
1.9187e-06
1.94862e-06
1.94573e-06
1.93237e-06
1.90338e-06
1.85877e-06
1.82305e-06
1.77687e-06
1.78505e-06
1.81094e-06
1.8648e-06
2.0616e-06
1.52782e-06
)
;
    }
    movingWallBottom
    {
        type            nutkWallFunction;
        Cmu             0.09;
        kappa           0.41;
        E               9.8;
        value           nonuniform List<scalar> 
20
(
0
0
7.17456e-07
1.26094e-06
1.56706e-06
1.74862e-06
1.85971e-06
1.91873e-06
1.94865e-06
1.94575e-06
1.93237e-06
1.90334e-06
1.8587e-06
1.82295e-06
1.77681e-06
1.785e-06
1.81088e-06
1.86476e-06
2.06157e-06
1.52779e-06
)
;
    }
    fixedWalls
    {
        type            nutkWallFunction;
        Cmu             0.09;
        kappa           0.41;
        E               9.8;
        value           nonuniform List<scalar> 
40
(
0
0
0
0
0
0
0
0
0
0
0
0
0
0
0
0
0
0
0
0
1.52779e-06
5.30335e-07
0
0
0
0
0
0
0
0
0
0
0
0
0
0
0
0
5.30345e-07
1.52782e-06
)
;
    }
    frontAndBack
    {
        type            empty;
    }
}


// ************************************************************************* //
