/*--------------------------------*- C++ -*----------------------------------*\
| =========                 |                                                 |
| \\      /  F ield         | OpenFOAM: The Open Source CFD Toolbox           |
|  \\    /   O peration     | Version:  4.1                                   |
|   \\  /    A nd           | Web:      www.OpenFOAM.org                      |
|    \\/     M anipulation  |                                                 |
\*---------------------------------------------------------------------------*/
FoamFile
{
    version     2.0;
    format      ascii;
    class       volScalarField;
    location    "1";
    object      p;
}
// * * * * * * * * * * * * * * * * * * * * * * * * * * * * * * * * * * * * * //

dimensions      [0 2 -2 0 0 0 0];

internalField   nonuniform List<scalar> 
400
(
1.08441e-07
0.000781119
-0.00051226
-0.00135396
-0.0017836
-0.00204794
-0.00228258
-0.00253546
-0.0028453
-0.00324368
-0.00378059
-0.00447058
-0.00528617
-0.00611595
-0.00667068
-0.00668098
-0.00507615
-0.000392911
0.0091276
0.0278676
-0.00455487
-0.00382773
-0.00339537
-0.00305526
-0.00290028
-0.0028548
-0.00288985
-0.00300056
-0.00320333
-0.00352669
-0.00401551
-0.00468063
-0.00553769
-0.00645511
-0.00733219
-0.0077218
-0.00707507
-0.00447752
0.000317529
0.017176
-0.00260514
-0.00246988
-0.00245003
-0.00245662
-0.00250099
-0.00258582
-0.00271319
-0.00289313
-0.00315029
-0.00352254
-0.00405846
-0.00478943
-0.00572381
-0.00675808
-0.00776325
-0.00829224
-0.00824389
-0.00686584
-0.00561304
0.00357812
-0.00238894
-0.00241643
-0.00244372
-0.00245176
-0.00249411
-0.00257358
-0.00269836
-0.00288713
-0.00316385
-0.00356529
-0.00414053
-0.00493615
-0.00598174
-0.00719334
-0.00843061
-0.00918371
-0.00947093
-0.00832958
-0.00836844
-0.00371556
-0.0021023
-0.00218695
-0.00226333
-0.00231409
-0.00237581
-0.00246835
-0.00260105
-0.0027956
-0.00307891
-0.00349212
-0.00409496
-0.00496304
-0.00618075
-0.00769506
-0.00934051
-0.01036
-0.0107954
-0.00942655
-0.00926185
-0.00562452
-0.0018875
-0.00199724
-0.00209354
-0.00216391
-0.00223412
-0.00232445
-0.00244788
-0.00262403
-0.0028818
-0.00326578
-0.00385008
-0.00475392
-0.00617004
-0.00805492
-0.0102768
-0.0116175
-0.0120508
-0.0102491
-0.00880396
-0.00481448
-0.00171848
-0.00183641
-0.00194051
-0.00201693
-0.00208441
-0.00216052
-0.0022577
-0.00239244
-0.00259016
-0.00289464
-0.00338849
-0.00423767
-0.00573504
-0.00797705
-0.0104718
-0.0120588
-0.0118794
-0.00962781
-0.00655444
-0.0021095
-0.00159467
-0.00171288
-0.00181641
-0.00188926
-0.00194561
-0.00199937
-0.0020593
-0.00213546
-0.00224299
-0.00241242
-0.00271354
-0.00336737
-0.00478485
-0.00710486
-0.00957772
-0.0108546
-0.00978737
-0.00652167
-0.00195494
0.00256766
-0.00151051
-0.00162748
-0.00172764
-0.0017938
-0.00183716
-0.00186814
-0.00189088
-0.0019071
-0.00191804
-0.0019301
-0.00199032
-0.00236607
-0.00355325
-0.00562147
-0.00768883
-0.00809554
-0.00604588
-0.00155403
0.0045506
0.00811115
-0.00146782
-0.00158369
-0.0016812
-0.00174253
-0.00177736
-0.00179393
-0.00179314
-0.00177058
-0.00171754
-0.0016219
-0.00151472
-0.00168438
-0.00266265
-0.00449598
-0.00615093
-0.00585344
-0.00291366
0.00241393
0.00890163
0.0121211
-0.00146784
-0.00158372
-0.00168124
-0.00174257
-0.0017774
-0.00179396
-0.00179315
-0.00177053
-0.00171739
-0.00162164
-0.00151456
-0.00168451
-0.00266311
-0.00449654
-0.00615131
-0.00585377
-0.00291382
0.00241396
0.00890166
0.012121
-0.0015106
-0.00162757
-0.00172774
-0.00179391
-0.00183727
-0.00186825
-0.00189096
-0.00190706
-0.00191775
-0.00192948
-0.00198978
-0.00236624
-0.00355425
-0.00562299
-0.00769035
-0.00809644
-0.00604619
-0.00155408
0.00455062
0.00811096
-0.00159481
-0.00171304
-0.00181659
-0.00188945
-0.0019458
-0.00199956
-0.00205946
-0.00213552
-0.00224278
-0.00241178
-0.0027127
-0.0033672
-0.00478584
-0.00710679
-0.00957993
-0.0108562
-0.00978822
-0.00652206
-0.00195514
0.0025675
-0.0017187
-0.00183666
-0.00194076
-0.0020172
-0.00208467
-0.00216077
-0.00225794
-0.00239261
-0.00259009
-0.00289415
-0.0033875
-0.0042368
-0.00573528
-0.0079785
-0.0104739
-0.0120607
-0.0118805
-0.00962832
-0.00655467
-0.00210977
-0.0018878
-0.00199755
-0.00209388
-0.00216424
-0.00223444
-0.00232476
-0.00244818
-0.00262427
-0.00288188
-0.00326553
-0.00384927
-0.00475271
-0.00616944
-0.00805539
-0.0102782
-0.011619
-0.0120517
-0.0102497
-0.00880435
-0.00481476
-0.00210267
-0.00218734
-0.00226372
-0.00231448
-0.00237618
-0.00246871
-0.00260139
-0.00279591
-0.00307912
-0.00349209
-0.0040945
-0.00496211
-0.00617982
-0.00769472
-0.00934091
-0.0103606
-0.0107959
-0.00942702
-0.00926212
-0.00562468
-0.00238938
-0.00241687
-0.00244417
-0.00245219
-0.00249453
-0.00257399
-0.00269876
-0.00288752
-0.0031642
-0.0035655
-0.00414047
-0.0049357
-0.00598105
-0.00719273
-0.00843041
-0.0091838
-0.00947104
-0.00832975
-0.00836839
-0.00371567
-0.00260567
-0.00247036
-0.00245049
-0.00245706
-0.00250142
-0.00258626
-0.00271364
-0.00289359
-0.00315077
-0.00352299
-0.00405876
-0.00478945
-0.00572355
-0.00675765
-0.00776288
-0.00829204
-0.00824376
-0.00686581
-0.00561291
0.00357825
-0.0045554
-0.00382823
-0.00339587
-0.00305574
-0.00290075
-0.00285526
-0.00289033
-0.00300107
-0.00320387
-0.00352724
-0.00401599
-0.00468092
-0.00553772
-0.00645493
-0.0073319
-0.00772155
-0.00707486
-0.00447731
0.000317848
0.0171764
-7.43197e-07
0.000780341
-0.00051289
-0.00135449
-0.00178407
-0.0020484
-0.00228304
-0.00253594
-0.00284581
-0.0032442
-0.00378105
-0.0044709
-0.00528629
-0.00611587
-0.00667045
-0.0066807
-0.00507586
-0.000392592
0.00912803
0.0278681
)
;

boundaryField
{
    movingWall
    {
        type            zeroGradient;
    }
    movingWallBottom
    {
        type            zeroGradient;
    }
    fixedWalls
    {
        type            zeroGradient;
    }
    frontAndBack
    {
        type            empty;
    }
}


// ************************************************************************* //
