/*--------------------------------*- C++ -*----------------------------------*\
| =========                 |                                                 |
| \\      /  F ield         | OpenFOAM: The Open Source CFD Toolbox           |
|  \\    /   O peration     | Version:  4.1                                   |
|   \\  /    A nd           | Web:      www.OpenFOAM.org                      |
|    \\/     M anipulation  |                                                 |
\*---------------------------------------------------------------------------*/
FoamFile
{
    version     2.0;
    format      ascii;
    class       surfaceScalarField;
    location    "1";
    object      phi;
}
// * * * * * * * * * * * * * * * * * * * * * * * * * * * * * * * * * * * * * //

dimensions      [0 3 -1 0 0 0 0];

internalField   nonuniform List<scalar> 
760
(
2.61153e-06
-2.61154e-06
4.05321e-06
-1.44168e-06
5.05588e-06
-1.00267e-06
5.90653e-06
-8.50652e-07
6.64959e-06
-7.43059e-07
7.30756e-06
-6.57968e-07
7.89991e-06
-5.92355e-07
8.44684e-06
-5.4693e-07
8.96306e-06
-5.16219e-07
9.46153e-06
-4.98472e-07
9.95543e-06
-4.93893e-07
1.04431e-05
-4.87682e-07
1.09305e-05
-4.87372e-07
1.1359e-05
-4.28544e-07
1.17204e-05
-3.61371e-07
1.183e-05
-1.09632e-07
1.15834e-05
2.46617e-07
1.03516e-05
1.23177e-06
7.38509e-06
2.96655e-06
7.38509e-06
-3.6019e-07
-2.25135e-06
-2.08317e-07
-1.59356e-06
1.34696e-07
-1.34568e-06
4.78783e-07
-1.19474e-06
8.19175e-07
-1.08345e-06
1.15095e-06
-9.89739e-07
1.48062e-06
-9.22034e-07
1.81559e-06
-8.81898e-07
2.16774e-06
-8.68363e-07
2.5502e-06
-8.80936e-07
2.97015e-06
-9.13848e-07
3.43131e-06
-9.48834e-07
3.9126e-06
-9.68665e-07
4.39587e-06
-9.11814e-07
4.80058e-06
-7.66078e-07
5.01649e-06
-3.25543e-07
4.91615e-06
3.46951e-07
4.27031e-06
1.87761e-06
2.44679e-06
4.79007e-06
9.83188e-06
-4.76378e-07
-1.77497e-06
-5.06026e-07
-1.56391e-06
-4.85847e-07
-1.36586e-06
-4.67398e-07
-1.21319e-06
-4.35741e-07
-1.11511e-06
-3.72086e-07
-1.05339e-06
-2.68435e-07
-1.02568e-06
-1.15714e-07
-1.03462e-06
9.80934e-08
-1.08217e-06
3.8124e-07
-1.16408e-06
7.4167e-07
-1.27428e-06
1.17766e-06
-1.38483e-06
1.6541e-06
-1.4451e-06
2.10573e-06
-1.36344e-06
2.41061e-06
-1.07097e-06
2.48195e-06
-3.96881e-07
2.22539e-06
6.03515e-07
1.6595e-06
2.4435e-06
7.47796e-07
5.70177e-06
1.05797e-05
-3.84354e-07
-1.39061e-06
-5.59671e-07
-1.38859e-06
-6.57337e-07
-1.2682e-06
-7.16464e-07
-1.15406e-06
-7.53895e-07
-1.07768e-06
-7.61832e-07
-1.04546e-06
-7.30693e-07
-1.05682e-06
-6.47534e-07
-1.11778e-06
-4.9741e-07
-1.23229e-06
-2.64376e-07
-1.39712e-06
6.01977e-08
-1.59885e-06
4.74555e-07
-1.79918e-06
9.50126e-07
-1.92068e-06
1.41305e-06
-1.82636e-06
1.7164e-06
-1.37432e-06
1.75407e-06
-4.34543e-07
1.40031e-06
9.57271e-07
8.44082e-07
2.99973e-06
2.66411e-07
6.27944e-06
1.08461e-05
-2.81049e-07
-1.10957e-06
-5.02949e-07
-1.16669e-06
-6.68287e-07
-1.10286e-06
-7.87402e-07
-1.03495e-06
-8.72008e-07
-9.93072e-07
-9.25635e-07
-9.91832e-07
-9.42581e-07
-1.03988e-06
-9.13719e-07
-1.14664e-06
-8.26922e-07
-1.31909e-06
-6.65373e-07
-1.55867e-06
-4.08802e-07
-1.85542e-06
-3.61641e-08
-2.17182e-06
4.25104e-07
-2.38194e-06
8.90288e-07
-2.29154e-06
1.18139e-06
-1.66542e-06
1.15605e-06
-4.09206e-07
8.07462e-07
1.30586e-06
2.69471e-07
3.53772e-06
-5.73959e-08
6.60631e-06
1.07887e-05
-2.48813e-07
-8.60752e-07
-4.7578e-07
-9.39726e-07
-6.66068e-07
-9.12569e-07
-8.22643e-07
-8.78372e-07
-9.5102e-07
-8.64695e-07
-1.05451e-06
-8.88342e-07
-1.13195e-06
-9.62441e-07
-1.17892e-06
-1.09967e-06
-1.1866e-06
-1.3114e-06
-1.13814e-06
-1.60713e-06
-1.00583e-06
-1.98773e-06
-7.47483e-07
-2.43017e-06
-4.15162e-07
-2.71427e-06
-1.13372e-07
-2.59334e-06
3.0211e-08
-1.809e-06
-6.19688e-08
-3.17026e-07
-1.95061e-07
1.43895e-06
-5.34753e-07
3.87741e-06
-6.83729e-07
6.75529e-06
1.0105e-05
-2.24325e-07
-6.36427e-07
-4.5582e-07
-7.08232e-07
-6.66394e-07
-7.01994e-07
-8.54695e-07
-6.90072e-07
-1.02479e-06
-6.94604e-07
-1.18166e-06
-7.31469e-07
-1.3293e-06
-8.14798e-07
-1.46999e-06
-9.58979e-07
-1.60233e-06
-1.17907e-06
-1.7168e-06
-1.49265e-06
-1.79177e-06
-1.91276e-06
-1.80446e-06
-2.41748e-06
-1.7853e-06
-2.73343e-06
-1.82918e-06
-2.54946e-06
-1.96477e-06
-1.67341e-06
-2.06161e-06
-2.2019e-07
-2.1436e-06
1.52094e-06
-1.99061e-06
3.72441e-06
-1.55953e-06
6.32421e-06
8.54544e-06
-2.14892e-07
-4.21534e-07
-4.48685e-07
-4.74439e-07
-6.73782e-07
-4.76897e-07
-8.87755e-07
-4.76099e-07
-1.09491e-06
-4.87445e-07
-1.30313e-06
-5.23249e-07
-1.52249e-06
-5.95437e-07
-1.76452e-06
-7.16957e-07
-2.04053e-06
-9.0305e-07
-2.3595e-06
-1.17368e-06
-2.72724e-06
-1.54502e-06
-3.16216e-06
-1.98256e-06
-3.65089e-06
-2.2447e-06
-4.1688e-06
-2.03155e-06
-4.54059e-06
-1.30161e-06
-4.64579e-06
-1.14991e-07
-4.44574e-06
1.32089e-06
-3.73716e-06
3.01583e-06
-2.28642e-06
4.87347e-06
6.25902e-06
-2.11195e-07
-2.1034e-07
-4.47609e-07
-2.38024e-07
-6.83272e-07
-2.41235e-07
-9.16221e-07
-2.4315e-07
-1.15203e-06
-2.51632e-07
-1.40185e-06
-2.73433e-07
-1.68186e-06
-3.15424e-07
-2.01341e-06
-3.85407e-07
-2.42327e-06
-4.9319e-07
-2.94507e-06
-6.51882e-07
-3.61811e-06
-8.71993e-07
-4.47342e-06
-1.12725e-06
-5.46006e-06
-1.25805e-06
-6.38939e-06
-1.10223e-06
-6.98349e-06
-7.07503e-07
-7.00586e-06
-9.26255e-08
-6.48263e-06
7.9766e-07
-5.14192e-06
1.67512e-06
-3.00264e-06
2.73419e-06
3.25638e-06
-2.10392e-07
5.27367e-11
-4.4845e-07
3.45531e-11
-6.89704e-07
1.93602e-11
-9.32857e-07
2.51455e-12
-1.18447e-06
-1.82513e-11
-1.45786e-06
-4.68615e-11
-1.77319e-06
-9.51366e-11
-2.15841e-06
-1.8608e-10
-2.65126e-06
-3.37165e-10
-3.30264e-06
-4.98524e-10
-4.1741e-06
-5.30935e-10
-5.30112e-06
-2.30715e-10
-6.55944e-06
2.69814e-10
-7.66223e-06
5.57e-10
-8.37019e-06
4.60114e-10
-8.46305e-06
2.32967e-10
-7.66556e-06
1.72121e-10
-5.99058e-06
1.42417e-10
-3.25654e-06
1.3854e-10
-1.52846e-10
-2.10398e-07
2.10451e-07
-4.48458e-07
2.38095e-07
-6.89713e-07
2.41274e-07
-9.32866e-07
2.43156e-07
-1.18448e-06
2.51599e-07
-1.45788e-06
2.73346e-07
-1.77322e-06
3.15249e-07
-2.15847e-06
3.85065e-07
-2.65138e-06
4.92574e-07
-3.30285e-06
6.50965e-07
-4.17442e-06
8.71039e-07
-5.30154e-06
1.1269e-06
-6.55983e-06
1.25856e-06
-7.66247e-06
1.10319e-06
-8.37039e-06
7.0838e-07
-8.46322e-06
9.30639e-08
-7.66552e-06
-7.97528e-07
-5.99043e-06
-1.67494e-06
-3.25628e-06
-2.73402e-06
-3.25643e-06
-2.1121e-07
4.21661e-07
-4.47631e-07
4.74516e-07
-6.83294e-07
4.76936e-07
-9.16243e-07
4.76105e-07
-1.15206e-06
4.87417e-07
-1.40189e-06
5.23176e-07
-1.68193e-06
5.95288e-07
-2.01353e-06
7.1667e-07
-2.42352e-06
9.02559e-07
-2.94554e-06
1.17299e-06
-3.61892e-06
1.54442e-06
-4.47461e-06
1.98259e-06
-5.46141e-06
2.24535e-06
-6.39051e-06
2.0323e-06
-6.98418e-06
1.30206e-06
-7.00625e-06
1.15131e-07
-6.48287e-06
-1.32091e-06
-5.14203e-06
-3.01579e-06
-3.00261e-06
-4.87343e-06
-6.25904e-06
-2.14914e-07
6.36575e-07
-4.48712e-07
7.08314e-07
-6.73807e-07
7.02032e-07
-8.8778e-07
6.90078e-07
-1.09495e-06
6.94583e-07
-1.30318e-06
7.3141e-07
-1.52257e-06
8.14677e-07
-1.76465e-06
9.58749e-07
-2.04078e-06
1.17869e-06
-2.35997e-06
1.49218e-06
-2.72807e-06
1.91251e-06
-3.16344e-06
2.41796e-06
-3.65235e-06
2.73426e-06
-4.17009e-06
2.55004e-06
-4.5415e-06
1.67346e-06
-4.64635e-06
2.19981e-07
-4.44606e-06
-1.52119e-06
-3.73732e-06
-3.72453e-06
-2.28651e-06
-6.32425e-06
-8.54555e-06
-2.24346e-07
8.60921e-07
-4.55841e-07
9.39809e-07
-6.66412e-07
9.12603e-07
-8.54712e-07
8.78378e-07
-1.02481e-06
8.64679e-07
-1.1817e-06
8.88299e-07
-1.32937e-06
9.62352e-07
-1.47013e-06
1.0995e-06
-1.60256e-06
1.31112e-06
-1.71717e-06
1.6068e-06
-1.79229e-06
1.98763e-06
-1.80508e-06
2.43074e-06
-1.78602e-06
2.71521e-06
-1.82994e-06
2.59395e-06
-1.96544e-06
1.80897e-06
-2.06205e-06
3.16596e-07
-2.14381e-06
-1.43943e-06
-1.99067e-06
-3.87768e-06
-1.55943e-06
-6.75548e-06
-1.0105e-05
-2.48825e-07
1.10975e-06
-4.75787e-07
1.16677e-06
-6.66067e-07
1.10288e-06
-8.22638e-07
1.03495e-06
-9.51021e-07
9.93062e-07
-1.05453e-06
9.91807e-07
-1.132e-06
1.03982e-06
-1.17903e-06
1.14654e-06
-1.18681e-06
1.3189e-06
-1.13844e-06
1.55843e-06
-1.00611e-06
1.8553e-06
-7.47491e-07
2.17212e-06
-4.14983e-07
2.3827e-06
-1.13283e-07
2.29225e-06
3.0169e-08
1.66551e-06
-6.20656e-08
4.08831e-07
-1.9519e-07
-1.30631e-06
-5.3484e-07
-3.53803e-06
-6.83875e-07
-6.60645e-06
-1.07889e-05
-2.81043e-07
1.39079e-06
-5.02931e-07
1.38866e-06
-6.68256e-07
1.26821e-06
-7.87365e-07
1.15406e-06
-8.71975e-07
1.07767e-06
-9.25619e-07
1.04545e-06
-9.42602e-07
1.05681e-06
-9.13804e-07
1.11774e-06
-8.27099e-07
1.2322e-06
-6.65634e-07
1.39696e-06
-4.09043e-07
1.59871e-06
-3.61229e-08
1.7992e-06
4.25573e-07
1.92101e-06
8.90999e-07
1.82683e-06
1.18196e-06
1.37456e-06
1.15638e-06
4.3441e-07
8.07594e-07
-9.57524e-07
2.69519e-07
-2.99995e-06
-5.73229e-08
-6.27961e-06
-1.08462e-05
-3.84309e-07
1.7751e-06
-5.59606e-07
1.56396e-06
-6.57266e-07
1.36587e-06
-7.16394e-07
1.21319e-06
-7.53834e-07
1.11511e-06
-7.61787e-07
1.0534e-06
-7.30678e-07
1.0257e-06
-6.4757e-07
1.03463e-06
-4.97529e-07
1.08216e-06
-2.64593e-07
1.16402e-06
5.99431e-08
1.27417e-06
4.74402e-07
1.38474e-06
9.50263e-07
1.44514e-06
1.4135e-06
1.36359e-06
1.71692e-06
1.07113e-06
1.75446e-06
3.96877e-07
1.4005e-06
-6.03572e-07
8.44161e-07
-2.44361e-06
2.66411e-07
-5.70186e-06
-1.05798e-05
-4.76334e-07
2.25143e-06
-5.05948e-07
1.59357e-06
-4.85762e-07
1.34568e-06
-4.6732e-07
1.19474e-06
-4.35673e-07
1.08347e-06
-3.72028e-07
9.8976e-07
-2.68389e-07
9.2206e-07
-1.15687e-07
8.81927e-07
9.80804e-08
8.68389e-07
3.81164e-07
8.8094e-07
7.41522e-07
9.13815e-07
1.17749e-06
9.48777e-07
1.65401e-06
9.68624e-07
2.10579e-06
9.11813e-07
2.41079e-06
7.66134e-07
2.48212e-06
3.25551e-07
2.22549e-06
-3.46951e-07
1.65954e-06
-1.87766e-06
7.4782e-07
-4.79013e-06
-9.83195e-06
-3.60137e-07
2.61157e-06
-2.08255e-07
1.44169e-06
1.34753e-07
1.00267e-06
4.78836e-07
8.50662e-07
8.19231e-07
7.43071e-07
1.15101e-06
6.5798e-07
1.4807e-06
5.92369e-07
1.81568e-06
5.46945e-07
2.16784e-06
5.16232e-07
2.5503e-06
4.98478e-07
2.97023e-06
4.93885e-07
3.43134e-06
4.87665e-07
3.91261e-06
4.87355e-07
4.39589e-06
4.28535e-07
4.80065e-06
3.61378e-07
5.01657e-06
1.09632e-07
4.91624e-06
-2.46621e-07
4.27037e-06
-1.23179e-06
2.44682e-06
-2.96658e-06
-7.38513e-06
2.61157e-06
4.05326e-06
5.05593e-06
5.9066e-06
6.64967e-06
7.30765e-06
7.90002e-06
8.44696e-06
8.96319e-06
9.46167e-06
9.95556e-06
1.04432e-05
1.09306e-05
1.13591e-05
1.17205e-05
1.18301e-05
1.15835e-05
1.03517e-05
7.38513e-06
)
;

boundaryField
{
    movingWall
    {
        type            calculated;
        value           uniform 0;
    }
    movingWallBottom
    {
        type            calculated;
        value           uniform 0;
    }
    fixedWalls
    {
        type            calculated;
        value           uniform 0;
    }
    frontAndBack
    {
        type            empty;
        value           nonuniform 0();
    }
}


// ************************************************************************* //
