/*--------------------------------*- C++ -*----------------------------------*\
| =========                 |                                                 |
| \\      /  F ield         | OpenFOAM: The Open Source CFD Toolbox           |
|  \\    /   O peration     | Version:  4.1                                   |
|   \\  /    A nd           | Web:      www.OpenFOAM.org                      |
|    \\/     M anipulation  |                                                 |
\*---------------------------------------------------------------------------*/
FoamFile
{
    version     2.0;
    format      ascii;
    class       volVectorField;
    location    "1";
    object      U;
}
// * * * * * * * * * * * * * * * * * * * * * * * * * * * * * * * * * * * * * //

dimensions      [0 1 -1 0 0 0 0];

internalField   nonuniform List<vector> 
400
(
(0.0524827 -0.0998912 0)
(0.0608372 -0.0619022 0)
(0.0911534 -0.0391537 0)
(0.111494 -0.0284142 0)
(0.12698 -0.0222099 0)
(0.14029 -0.0181003 0)
(0.152483 -0.0150815 0)
(0.163839 -0.0128763 0)
(0.17433 -0.0111504 0)
(0.184711 -0.00981584 0)
(0.194017 -0.00887531 0)
(0.204338 -0.00786512 0)
(0.212517 -0.00762144 0)
(0.22251 -0.00609311 0)
(0.228643 -0.00648058 0)
(0.235654 -0.00242079 0)
(0.233917 0.000315881 0)
(0.22424 0.00710541 0)
(0.177718 0.0200337 0)
(0.167578 0.116744 0)
(-0.00317913 -0.0249662 0)
(-0.00897334 -0.0113429 0)
(-5.56294e-05 -0.0115652 0)
(0.00581317 -0.0130677 0)
(0.0128405 -0.0131177 0)
(0.0196307 -0.0126418 0)
(0.0263146 -0.0121846 0)
(0.0329861 -0.0119269 0)
(0.0398783 -0.0119014 0)
(0.0472322 -0.0121148 0)
(0.0550888 -0.0125401 0)
(0.0640611 -0.0130078 0)
(0.07255 -0.0132217 0)
(0.0833009 -0.0124924 0)
(0.0892589 -0.0102158 0)
(0.0987634 -0.00357785 0)
(0.0959707 0.00648965 0)
(0.0988311 0.0328084 0)
(0.0488721 0.0783545 0)
(0.083576 0.153699 0)
(-0.00715189 -0.0485783 0)
(-0.010841 -0.0390953 0)
(-0.00987001 -0.0324817 0)
(-0.00949534 -0.0277024 0)
(-0.00919701 -0.0248484 0)
(-0.00824678 -0.0227103 0)
(-0.00657023 -0.0213153 0)
(-0.0040274 -0.0206363 0)
(-0.000422456 -0.0206661 0)
(0.00450481 -0.0213788 0)
(0.0109531 -0.0226482 0)
(0.01892 -0.0239729 0)
(0.0278315 -0.0246623 0)
(0.0376719 -0.0230472 0)
(0.0439603 -0.0184392 0)
(0.0512079 -0.00741413 0)
(0.0435556 0.00949255 0)
(0.0517135 0.0458776 0)
(-0.000242073 0.110761 0)
(0.045539 0.20496 0)
(-0.00533881 -0.0289404 0)
(-0.0102925 -0.0285471 0)
(-0.0122174 -0.0259724 0)
(-0.0137982 -0.0235393 0)
(-0.0148427 -0.0217995 0)
(-0.0152933 -0.0209703 0)
(-0.0151051 -0.0209113 0)
(-0.0140029 -0.0217198 0)
(-0.0117236 -0.0234603 0)
(-0.00792382 -0.0260376 0)
(-0.00241208 -0.0292227 0)
(0.00493228 -0.0323305 0)
(0.0138461 -0.0340526 0)
(0.0236043 -0.0322132 0)
(0.0305823 -0.0247706 0)
(0.0377984 -0.00866168 0)
(0.0276101 0.0150607 0)
(0.0359706 0.0554554 0)
(-0.0115603 0.125688 0)
(0.029087 0.226351 0)
(-0.00343752 -0.0253484 0)
(-0.00834713 -0.0257274 0)
(-0.0118785 -0.0238541 0)
(-0.0146768 -0.0220559 0)
(-0.0167302 -0.0208988 0)
(-0.0181107 -0.0205741 0)
(-0.0188433 -0.0212025 0)
(-0.0187527 -0.0229341 0)
(-0.017636 -0.0258707 0)
(-0.0152025 -0.0299785 0)
(-0.011092 -0.0350062 0)
(-0.00485966 -0.0401669 0)
(0.00350804 -0.0435766 0)
(0.0130358 -0.0421237 0)
(0.0200539 -0.031918 0)
(0.0264417 -0.00998456 0)
(0.0152006 0.0218592 0)
(0.0235307 0.0636169 0)
(-0.0176094 0.128706 0)
(0.0187453 0.225115 0)
(-0.00299553 -0.0194802 0)
(-0.00756599 -0.0210397 0)
(-0.0115393 -0.0202308 0)
(-0.014984 -0.0192682 0)
(-0.0178396 -0.0187574 0)
(-0.020154 -0.0190267 0)
(-0.0219635 -0.0203118 0)
(-0.0232163 -0.0228418 0)
(-0.0237877 -0.0268024 0)
(-0.0234188 -0.0322937 0)
(-0.0216733 -0.039211 0)
(-0.0177585 -0.0468949 0)
(-0.0117175 -0.0525711 0)
(-0.00516881 -0.0512262 0)
(-0.00115609 -0.038025 0)
(0.00226585 -0.00919618 0)
(-0.00608321 0.0253804 0)
(0.00138287 0.0705945 0)
(-0.0279651 0.131546 0)
(0.00956468 0.213357 0)
(-0.00257047 -0.0150411 0)
(-0.00700749 -0.0165059 0)
(-0.011302 -0.0162198 0)
(-0.0152688 -0.0158057 0)
(-0.0188506 -0.0157623 0)
(-0.0220989 -0.0164268 0)
(-0.0251167 -0.0180848 0)
(-0.0279756 -0.021018 0)
(-0.0306876 -0.0254982 0)
(-0.0331442 -0.0318188 0)
(-0.034974 -0.040167 0)
(-0.0355855 -0.0503259 0)
(-0.0355147 -0.0561942 0)
(-0.0369046 -0.0536492 0)
(-0.0411188 -0.0363823 0)
(-0.0429318 -0.00580821 0)
(-0.0434533 0.0301737 0)
(-0.0359857 0.0787905 0)
(-0.0461749 0.135835 0)
(-0.00410353 0.192428 0)
(-0.00241465 -0.0105701 0)
(-0.00677416 -0.0118365 0)
(-0.0112584 -0.0118388 0)
(-0.0156287 -0.0117531 0)
(-0.0198279 -0.011958 0)
(-0.0239399 -0.0127447 0)
(-0.0281555 -0.0143861 0)
(-0.0326985 -0.0171691 0)
(-0.0377916 -0.0214103 0)
(-0.0436348 -0.0274997 0)
(-0.0501122 -0.0357037 0)
(-0.0573339 -0.0453206 0)
(-0.0670675 -0.0515086 0)
(-0.0807774 -0.0462973 0)
(-0.0933233 -0.0285278 0)
(-0.097067 -0.00191631 0)
(-0.092104 0.0330544 0)
(-0.0793174 0.0757503 0)
(-0.0623313 0.122255 0)
(-0.017111 0.157867 0)
(-0.00235031 -0.00632267 0)
(-0.0066851 -0.00713175 0)
(-0.0113079 -0.00721216 0)
(-0.0159716 -0.00725101 0)
(-0.0206364 -0.00748218 0)
(-0.0254308 -0.00810295 0)
(-0.0306373 -0.00931073 0)
(-0.0366325 -0.0113245 0)
(-0.0438857 -0.0144112 0)
(-0.05296 -0.0189139 0)
(-0.0641719 -0.0250803 0)
(-0.0784999 -0.0320959 0)
(-0.0982614 -0.0353125 0)
(-0.122936 -0.0303698 0)
(-0.142161 -0.0182352 0)
(-0.146259 -0.000134881 0)
(-0.13733 0.0263749 0)
(-0.115494 0.0560725 0)
(-0.073719 0.0874532 0)
(-0.0417615 0.104027 0)
(-0.00233463 -0.00210346 0)
(-0.00666694 -0.00238233 0)
(-0.0113614 -0.00242279 0)
(-0.0161815 -0.00245185 0)
(-0.0210994 -0.00254886 0)
(-0.0262749 -0.0027838 0)
(-0.0320503 -0.00322914 0)
(-0.038901 -0.00396751 0)
(-0.047471 -0.00510344 0)
(-0.0585752 -0.00676623 0)
(-0.072872 -0.00903079 0)
(-0.0918749 -0.0115061 0)
(-0.117718 -0.0124667 0)
(-0.148299 -0.0106433 0)
(-0.1669 -0.00695796 0)
(-0.173583 -0.00167084 0)
(-0.16549 0.0111966 0)
(-0.132037 0.0197284 0)
(-0.08811 0.0302997 0)
(-0.0418085 0.0362502 0)
(-0.00233471 0.0021056 0)
(-0.00666709 0.00238373 0)
(-0.0113616 0.00242357 0)
(-0.0161817 0.00245196 0)
(-0.0210996 0.00254814 0)
(-0.0262752 0.00278196 0)
(-0.0320509 0.00322542 0)
(-0.0389019 0.00396027 0)
(-0.0474727 0.00509032 0)
(-0.058578 0.00674678 0)
(-0.0728768 0.00900993 0)
(-0.0918823 0.011497 0)
(-0.117727 0.0124768 0)
(-0.148306 0.0106648 0)
(-0.166905 0.00697736 0)
(-0.173589 0.00168104 0)
(-0.165489 -0.0111895 0)
(-0.132036 -0.0197222 0)
(-0.0881055 -0.0302942 0)
(-0.0418003 -0.0362559 0)
(-0.00235055 0.00632504 0)
(-0.00668554 0.00713324 0)
(-0.0113084 0.00721296 0)
(-0.015972 0.00725114 0)
(-0.0206368 0.00748156 0)
(-0.0254315 0.00810133 0)
(-0.0306384 0.00930743 0)
(-0.0366341 0.011318 0)
(-0.0438889 0.0143998 0)
(-0.0529655 0.018897 0)
(-0.0641831 0.0250631 0)
(-0.0785202 0.03209 0)
(-0.0982878 0.0353215 0)
(-0.122965 0.0303854 0)
(-0.142179 0.0182476 0)
(-0.146267 0.000138433 0)
(-0.137334 -0.0263756 0)
(-0.115498 -0.056071 0)
(-0.0737187 -0.0874512 0)
(-0.0417626 -0.104024 0)
(-0.00241501 0.0105729 0)
(-0.00677473 0.0118381 0)
(-0.011259 0.0118396 0)
(-0.0156292 0.0117532 0)
(-0.0198285 0.0119575 0)
(-0.0239407 0.0127434 0)
(-0.0281567 0.0143834 0)
(-0.0327005 0.0171638 0)
(-0.037795 0.0214016 0)
(-0.0436405 0.0274878 0)
(-0.0501224 0.0356953 0)
(-0.057354 0.0453255 0)
(-0.067097 0.0515225 0)
(-0.080809 0.0463083 0)
(-0.0933468 0.0285316 0)
(-0.0970792 0.0019167 0)
(-0.0921112 -0.0330555 0)
(-0.0793232 -0.0757512 0)
(-0.0623323 -0.122256 0)
(-0.0171139 -0.15787 0)
(-0.00257086 0.0150442 0)
(-0.00700799 0.0165076 0)
(-0.0113024 0.0162205 0)
(-0.0152691 0.0158058 0)
(-0.018851 0.0157619 0)
(-0.0220995 0.0164258 0)
(-0.0251178 0.0180826 0)
(-0.0279776 0.021014 0)
(-0.0306909 0.0254917 0)
(-0.0331497 0.0318109 0)
(-0.0349807 0.0401644 0)
(-0.0355951 0.0503397 0)
(-0.0355296 0.0562131 0)
(-0.0369219 0.0536604 0)
(-0.0411355 0.0363805 0)
(-0.0429417 0.00579999 0)
(-0.0434589 -0.0301819 0)
(-0.0359885 -0.0787933 0)
(-0.046174 -0.135835 0)
(-0.00410135 -0.192428 0)
(-0.00299584 0.0194836 0)
(-0.00756625 0.0210413 0)
(-0.0115394 0.0202314 0)
(-0.0149839 0.0192684 0)
(-0.0178396 0.0187572 0)
(-0.0201541 0.0190261 0)
(-0.0219641 0.0203105 0)
(-0.023218 0.0228391 0)
(-0.0237909 0.0267977 0)
(-0.0234239 0.0322881 0)
(-0.0216787 0.0392087 0)
(-0.0177602 0.0469036 0)
(-0.0117152 0.0525919 0)
(-0.00516647 0.0512436 0)
(-0.00115535 0.0380271 0)
(0.00226377 0.00918621 0)
(-0.00608535 -0.0253902 0)
(0.00138068 -0.0706018 0)
(-0.0279667 -0.131552 0)
(0.00956139 -0.213359 0)
(-0.00343759 0.0253521 0)
(-0.00834692 0.0257289 0)
(-0.011878 0.0238545 0)
(-0.0146761 0.0220559 0)
(-0.0167294 0.0208986 0)
(-0.0181102 0.0205738 0)
(-0.0188433 0.0212018 0)
(-0.0187537 0.0229326 0)
(-0.0176386 0.0258679 0)
(-0.0152069 0.0299745 0)
(-0.0110975 0.0350033 0)
(-0.00486188 0.0401694 0)
(0.00351312 0.0435873 0)
(0.0130479 0.0421383 0)
(0.0200667 0.031924 0)
(0.026451 0.00998001 0)
(0.0152046 -0.0218663 0)
(0.0235322 -0.0636222 0)
(-0.0176091 -0.128707 0)
(0.0187481 -0.225116 0)
(-0.00533815 0.0289438 0)
(-0.0102914 0.0285483 0)
(-0.012216 0.0259725 0)
(-0.0137967 0.0235391 0)
(-0.0148413 0.0217994 0)
(-0.0152922 0.0209702 0)
(-0.0151045 0.0209113 0)
(-0.014003 0.0217195 0)
(-0.0117251 0.0234591 0)
(-0.0079272 0.0260352 0)
(-0.00241742 0.0292198 0)
(0.0049277 0.032329 0)
(0.0138454 0.0340551 0)
(0.0236104 0.0322185 0)
(0.0305912 0.0247751 0)
(0.0378087 0.00866111 0)
(0.0276149 -0.015063 0)
(0.0359737 -0.0554584 0)
(-0.0115602 -0.125691 0)
(0.0290867 -0.226353 0)
(-0.00715125 0.04858 0)
(-0.0108397 0.0390961 0)
(-0.00986831 0.032482 0)
(-0.00949364 0.0277027 0)
(-0.00919555 0.0248488 0)
(-0.00824554 0.0227109 0)
(-0.00656917 0.021316 0)
(-0.00402662 0.020637 0)
(-0.000422225 0.0206666 0)
(0.00450395 0.0213786 0)
(0.0109508 0.022647 0)
(0.0189167 0.023971 0)
(0.0278285 0.024661 0)
(0.037672 0.023047 0)
(0.0439617 0.0184405 0)
(0.0512119 0.00741408 0)
(0.0435578 -0.00949262 0)
(0.0517153 -0.045879 0)
(-0.00024187 -0.110762 0)
(0.0455399 -0.204961 0)
(-0.00317813 0.0249682 0)
(-0.0089723 0.0113427 0)
(-5.42788e-05 0.0115649 0)
(0.00581422 0.0130676 0)
(0.0128415 0.0131177 0)
(0.0196319 0.0126418 0)
(0.026316 0.0121848 0)
(0.0329878 0.0119272 0)
(0.0398802 0.0119017 0)
(0.0472342 0.012115 0)
(0.0550907 0.0125399 0)
(0.0640624 0.0130072 0)
(0.0725506 0.0132209 0)
(0.0833016 0.0124917 0)
(0.0892592 0.0102158 0)
(0.0987648 0.0035778 0)
(0.0959722 -0.00648977 0)
(0.0988325 -0.032809 0)
(0.0488729 -0.0783551 0)
(0.0835763 -0.1537 0)
(0.0524835 0.09989 0)
(0.0608382 0.0619021 0)
(0.0911546 0.0391542 0)
(0.111495 0.0284148 0)
(0.126981 0.0222105 0)
(0.140292 0.0181008 0)
(0.152484 0.0150821 0)
(0.163841 0.0128768 0)
(0.174333 0.0111507 0)
(0.184714 0.00981617 0)
(0.194019 0.00887567 0)
(0.204341 0.00786554 0)
(0.21252 0.00762195 0)
(0.222512 0.00609356 0)
(0.228645 0.00648082 0)
(0.235656 0.00242087 0)
(0.233919 -0.000315879 0)
(0.224242 -0.00710567 0)
(0.177719 -0.020034 0)
(0.167579 -0.116745 0)
)
;

boundaryField
{
    movingWall
    {
        type            fixedValue;
        value           uniform (1 0 0);
    }
    movingWallBottom
    {
        type            fixedValue;
        value           uniform (1 0 0);
    }
    fixedWalls
    {
        type            noSlip;
    }
    frontAndBack
    {
        type            empty;
    }
}


// ************************************************************************* //
