/*--------------------------------*- C++ -*----------------------------------*\
| =========                 |                                                 |
| \\      /  F ield         | OpenFOAM: The Open Source CFD Toolbox           |
|  \\    /   O peration     | Version:  4.1                                   |
|   \\  /    A nd           | Web:      www.OpenFOAM.org                      |
|    \\/     M anipulation  |                                                 |
\*---------------------------------------------------------------------------*/
FoamFile
{
    version     2.0;
    format      ascii;
    class       volScalarField;
    location    "1.5";
    object      epsilon;
}
// * * * * * * * * * * * * * * * * * * * * * * * * * * * * * * * * * * * * * //

dimensions      [0 2 -3 0 0 0 0];

internalField   nonuniform List<scalar> 
400
(
0.0403894
0.0816495
0.12073
0.144743
0.158997
0.167218
0.171457
0.17283
0.172511
0.171733
0.170041
0.169377
0.168103
0.16826
0.168745
0.170697
0.173141
0.17684
0.189931
0.161248
0.00340451
0.00542766
0.00845118
0.0105199
0.0120261
0.0132121
0.0141145
0.0148538
0.0153357
0.0158162
0.0161169
0.0166614
0.0171275
0.0179546
0.018852
0.0203633
0.0253854
0.0392605
0.0718247
0.115248
0.00228663
0.00114995
0.0012987
0.0015254
0.00178187
0.00207717
0.00238485
0.00266749
0.00284932
0.00291918
0.00291739
0.00290653
0.00291569
0.00300311
0.00317915
0.00362579
0.00501372
0.0107253
0.0315318
0.0813875
0.00201072
0.000825048
0.00075217
0.000838566
0.00100947
0.00124346
0.00150845
0.00173855
0.00185214
0.00182464
0.0017167
0.00155338
0.00141105
0.00133201
0.00133683
0.00148967
0.00206933
0.00525945
0.0199938
0.0642263
0.00197153
0.00080879
0.000724668
0.000818659
0.00102272
0.00132309
0.00165801
0.00189217
0.00192722
0.00181519
0.001626
0.00142125
0.00123244
0.00108872
0.000993951
0.00104226
0.00134742
0.00380833
0.0162164
0.053608
0.00193956
0.000856003
0.000816487
0.000985848
0.0013087
0.00175809
0.00218838
0.00239276
0.00230583
0.00208779
0.00184492
0.00159149
0.00134232
0.0011302
0.000981616
0.000993707
0.00137441
0.0039343
0.0153111
0.0456649
0.00194557
0.000937399
0.00097049
0.0012569
0.00174838
0.00238217
0.00278427
0.00279509
0.00257997
0.00237006
0.00212296
0.00184262
0.0015728
0.00134847
0.00124552
0.00129913
0.00191323
0.00485352
0.0158146
0.0388966
0.00194514
0.00103277
0.00116187
0.00159263
0.00229493
0.002999
0.0031657
0.00292144
0.0026991
0.00253676
0.00239991
0.00224879
0.00213816
0.0020954
0.0021337
0.00247509
0.00365142
0.00728046
0.0172317
0.0323418
0.00192102
0.00112109
0.0013462
0.00191657
0.00279019
0.00330901
0.00327659
0.00289595
0.00276522
0.00275806
0.00292885
0.00314746
0.00341446
0.00381766
0.00442174
0.00544019
0.00733709
0.0109336
0.0173698
0.0249281
0.0018629
0.00116708
0.0014482
0.00208971
0.00301311
0.00342208
0.00327039
0.00293481
0.00285246
0.00293181
0.00329811
0.00377753
0.0044105
0.00524129
0.00631834
0.00780073
0.00987991
0.0126177
0.0141837
0.0137507
0.00186209
0.00116833
0.00145174
0.00209581
0.00301679
0.0034197
0.0032649
0.00293165
0.0028497
0.00292974
0.00329712
0.00377681
0.00441027
0.00524152
0.00631853
0.00780088
0.00988032
0.012618
0.0141848
0.0137549
0.00191858
0.00112614
0.00135937
0.00194046
0.00281536
0.0033084
0.00325965
0.00287973
0.00275458
0.00275074
0.00292704
0.00314572
0.00341366
0.00381698
0.00442135
0.00543882
0.00733515
0.0109305
0.0173675
0.0249327
0.00194208
0.00103887
0.00117729
0.00162327
0.00234241
0.00301414
0.00315194
0.00289305
0.00268147
0.0025236
0.00239187
0.00224315
0.00213564
0.00209359
0.00213264
0.00247313
0.00364836
0.00727484
0.0172233
0.0323438
0.00194337
0.00094274
0.000984003
0.00128447
0.00179393
0.00242688
0.00278814
0.00277088
0.00255751
0.00235097
0.00211012
0.00183635
0.0015706
0.00134687
0.00124427
0.00129766
0.00191054
0.00484857
0.0158076
0.0388984
0.00193858
0.000859828
0.000825965
0.0010061
0.00134413
0.00180533
0.00222187
0.00239455
0.00228725
0.00206926
0.00183002
0.00158181
0.00133726
0.00112778
0.000980472
0.000992497
0.00137178
0.00393001
0.0153068
0.0456668
0.00197182
0.000810666
0.000729657
0.000830001
0.00104411
0.0013559
0.00169322
0.0019148
0.00192915
0.00180999
0.00161537
0.00141154
0.00122517
0.00108384
0.000990523
0.00103919
0.00134418
0.00380408
0.0162098
0.0536103
0.00201152
0.00082597
0.000755137
0.000846146
0.00102226
0.00126043
0.00152761
0.00175348
0.00185599
0.00182179
0.00170582
0.00154136
0.00139993
0.0013228
0.00132985
0.00148388
0.00206343
0.0052527
0.0199902
0.0642292
0.00228765
0.00114983
0.00129945
0.00152841
0.00178782
0.00208477
0.00239163
0.00266971
0.0028417
0.0029039
0.0028971
0.00288364
0.0028939
0.00298324
0.00316273
0.00361218
0.00500241
0.0107167
0.0315305
0.0813911
0.00340541
0.00542715
0.00845014
0.0105178
0.0120227
0.0132065
0.0141032
0.0148334
0.0153047
0.0157767
0.0160713
0.0166152
0.0170838
0.017917
0.0188221
0.0203389
0.0253669
0.0392496
0.0718243
0.11525
0.0403879
0.081646
0.120719
0.144726
0.158977
0.167201
0.171446
0.172827
0.172511
0.171734
0.170045
0.169383
0.168113
0.168271
0.168758
0.17071
0.173152
0.176849
0.189937
0.161252
)
;

boundaryField
{
    movingWall
    {
        Cmu             0.09;
        kappa           0.41;
        E               9.8;
        type            epsilonWallFunction;
        value           nonuniform List<scalar> 
20
(
0.0403879
0.081646
0.120719
0.144726
0.158977
0.167201
0.171446
0.172827
0.172511
0.171734
0.170045
0.169383
0.168113
0.168271
0.168758
0.17071
0.173152
0.176849
0.189937
0.161252
)
;
    }
    movingWallBottom
    {
        Cmu             0.09;
        kappa           0.41;
        E               9.8;
        type            epsilonWallFunction;
        value           nonuniform List<scalar> 
20
(
0.0403894
0.0816495
0.12073
0.144743
0.158997
0.167218
0.171457
0.17283
0.172511
0.171733
0.170041
0.169377
0.168103
0.16826
0.168745
0.170697
0.173141
0.17684
0.189931
0.161248
)
;
    }
    fixedWalls
    {
        Cmu             0.09;
        kappa           0.41;
        E               9.8;
        type            epsilonWallFunction;
        value           nonuniform List<scalar> 
40
(
0.0403894
0.00340451
0.00228663
0.00201072
0.00197153
0.00193956
0.00194557
0.00194514
0.00192102
0.0018629
0.00186209
0.00191858
0.00194208
0.00194337
0.00193858
0.00197182
0.00201152
0.00228765
0.00340541
0.0403879
0.161248
0.115248
0.0813875
0.0642263
0.053608
0.0456649
0.0388966
0.0323418
0.0249281
0.0137507
0.0137549
0.0249327
0.0323438
0.0388984
0.0456668
0.0536103
0.0642292
0.0813911
0.11525
0.161252
)
;
    }
    frontAndBack
    {
        type            empty;
    }
}


// ************************************************************************* //
