/*--------------------------------*- C++ -*----------------------------------*\
| =========                 |                                                 |
| \\      /  F ield         | OpenFOAM: The Open Source CFD Toolbox           |
|  \\    /   O peration     | Version:  4.1                                   |
|   \\  /    A nd           | Web:      www.OpenFOAM.org                      |
|    \\/     M anipulation  |                                                 |
\*---------------------------------------------------------------------------*/
FoamFile
{
    version     2.0;
    format      ascii;
    class       volScalarField;
    location    "1.5";
    object      k;
}
// * * * * * * * * * * * * * * * * * * * * * * * * * * * * * * * * * * * * * //

dimensions      [0 2 -2 0 0 0 0];

internalField   nonuniform List<scalar> 
400
(
0.00398836
0.0063766
0.00827491
0.00933774
0.00994015
0.0102786
0.0104507
0.0105056
0.0104928
0.0104616
0.0103937
0.0103673
0.0103171
0.0103238
0.0103442
0.0104244
0.010524
0.0106736
0.0111947
0.0100376
0.000766325
0.00103335
0.00133941
0.00153739
0.00169413
0.00183475
0.00195844
0.00206886
0.00214536
0.00220457
0.00223666
0.00227418
0.00230177
0.00235976
0.00243304
0.00256294
0.00291029
0.00382741
0.00602129
0.00802443
0.000587982
0.000709476
0.000843842
0.000943364
0.00104987
0.00116966
0.00128771
0.00138186
0.00141301
0.00138875
0.00132717
0.00124734
0.00116505
0.0011164
0.00106618
0.00107435
0.00115417
0.00166294
0.00356049
0.00636388
0.000540214
0.000697013
0.000842939
0.000971148
0.00110872
0.00124954
0.00136682
0.00142208
0.00138808
0.00130372
0.00117981
0.00106063
0.000957958
0.000890028
0.000830364
0.000817066
0.000824467
0.00114848
0.00272132
0.00543493
0.000533687
0.000750984
0.000940244
0.00110714
0.00127518
0.00142277
0.00151003
0.00146765
0.00136352
0.00119959
0.00105174
0.000935742
0.000848017
0.000786598
0.000733708
0.00071909
0.000707774
0.00101053
0.00246734
0.00481831
0.000528838
0.000827774
0.00106354
0.00126767
0.00145221
0.00156936
0.00156468
0.00142218
0.00121366
0.00105633
0.000963171
0.000883173
0.000812114
0.000750283
0.000686906
0.000655328
0.000654473
0.0010253
0.00235435
0.00432993
0.000530669
0.000920746
0.00121152
0.00145405
0.00163115
0.00168416
0.0015511
0.00128343
0.00110039
0.00101919
0.000955485
0.000891212
0.00084211
0.000785093
0.000718071
0.000689236
0.000712852
0.00114051
0.00238467
0.00389076
0.000531483
0.0010229
0.00136687
0.00163907
0.00176715
0.00173161
0.00145872
0.0011633
0.00106062
0.00101602
0.000977191
0.000929321
0.000888763
0.00085655
0.000832635
0.000827044
0.000961204
0.00145544
0.00250649
0.00344034
0.000527782
0.00111264
0.00149942
0.00177149
0.00185342
0.00172912
0.00133089
0.0011105
0.0010327
0.00101104
0.00101085
0.00103989
0.00106929
0.00110842
0.00118246
0.00130296
0.00154943
0.00196138
0.00251214
0.00289197
0.000517381
0.00115843
0.00156659
0.00183126
0.00188813
0.00170948
0.00127717
0.00110201
0.00104572
0.00103489
0.00107021
0.0011628
0.00124785
0.00137341
0.00151743
0.00169719
0.00192903
0.00214878
0.00224637
0.00194496
0.000517217
0.00115791
0.0015656
0.00182927
0.00188535
0.00170639
0.00127523
0.00110092
0.00104482
0.0010341
0.00106987
0.00116266
0.00124783
0.0013736
0.00151768
0.00169744
0.00192941
0.00214917
0.00224679
0.00194535
0.000527294
0.00111095
0.00149623
0.00176568
0.00184512
0.00171925
0.00132364
0.00110685
0.00102986
0.00100894
0.00100917
0.00103963
0.00106897
0.00110852
0.00118301
0.00130333
0.00155001
0.00196194
0.00251255
0.00289233
0.000530874
0.0010205
0.00136187
0.00162982
0.00175299
0.00171643
0.0014435
0.00115651
0.00105662
0.00101261
0.000973366
0.000926626
0.000888226
0.000856248
0.000832734
0.000827224
0.000961481
0.001456
0.00250702
0.00344048
0.000530224
0.000918463
0.0012062
0.00144417
0.00161498
0.00166337
0.00153007
0.00126795
0.00109332
0.00101546
0.000952092
0.000889887
0.000841782
0.00078456
0.000717956
0.000689214
0.000712765
0.00114055
0.00238516
0.00389088
0.000528627
0.00082619
0.00105909
0.00125843
0.00143703
0.00154829
0.00154143
0.001399
0.00119619
0.00104742
0.000957138
0.000879216
0.000809818
0.000749187
0.000686377
0.000655089
0.000654181
0.00102498
0.00235482
0.00433006
0.000533719
0.000750225
0.000937336
0.00110011
0.0012625
0.00140425
0.00148726
0.00144339
0.00134061
0.00117941
0.00103635
0.000925144
0.000840541
0.000781249
0.000730199
0.000717371
0.000706587
0.00100994
0.00246765
0.00481846
0.00054035
0.00069693
0.000841567
0.000966642
0.00109931
0.00123442
0.00134662
0.00139937
0.00136567
0.00128237
0.00116123
0.00104486
0.000945449
0.000880955
0.000824071
0.00081353
0.000821879
0.00114717
0.00272145
0.0054351
0.000588157
0.000709673
0.000843342
0.000941645
0.00104537
0.00116102
0.00127453
0.00136526
0.0013933
0.00136927
0.00130892
0.00123142
0.00115177
0.00110569
0.00105912
0.00106844
0.00115012
0.00166102
0.00356059
0.00636407
0.000766462
0.0010337
0.00133957
0.0015369
0.00169259
0.00183149
0.00195279
0.00206066
0.00213511
0.0021935
0.00222505
0.00226337
0.00229204
0.0023519
0.00242715
0.00255811
0.00290678
0.00382544
0.00602111
0.0080245
0.00398826
0.00637641
0.00827442
0.009337
0.00993928
0.010278
0.0104503
0.0105055
0.0104927
0.0104616
0.0103939
0.0103676
0.0103174
0.0103242
0.0103447
0.0104249
0.0105244
0.0106739
0.0111949
0.0100378
)
;

boundaryField
{
    movingWall
    {
        type            kqRWallFunction;
        value           nonuniform List<scalar> 
20
(
0.00398826
0.00637641
0.00827442
0.009337
0.00993928
0.010278
0.0104503
0.0105055
0.0104927
0.0104616
0.0103939
0.0103676
0.0103174
0.0103242
0.0103447
0.0104249
0.0105244
0.0106739
0.0111949
0.0100378
)
;
    }
    movingWallBottom
    {
        type            kqRWallFunction;
        value           nonuniform List<scalar> 
20
(
0.00398836
0.0063766
0.00827491
0.00933774
0.00994015
0.0102786
0.0104507
0.0105056
0.0104928
0.0104616
0.0103937
0.0103673
0.0103171
0.0103238
0.0103442
0.0104244
0.010524
0.0106736
0.0111947
0.0100376
)
;
    }
    fixedWalls
    {
        type            kqRWallFunction;
        value           nonuniform List<scalar> 
40
(
0.00398836
0.000766325
0.000587982
0.000540214
0.000533687
0.000528838
0.000530669
0.000531483
0.000527782
0.000517381
0.000517217
0.000527294
0.000530874
0.000530224
0.000528627
0.000533719
0.00054035
0.000588157
0.000766462
0.00398826
0.0100376
0.00802443
0.00636388
0.00543493
0.00481831
0.00432993
0.00389076
0.00344034
0.00289197
0.00194496
0.00194535
0.00289233
0.00344048
0.00389088
0.00433006
0.00481846
0.0054351
0.00636407
0.0080245
0.0100378
)
;
    }
    frontAndBack
    {
        type            empty;
    }
}


// ************************************************************************* //
