/*--------------------------------*- C++ -*----------------------------------*\
| =========                 |                                                 |
| \\      /  F ield         | OpenFOAM: The Open Source CFD Toolbox           |
|  \\    /   O peration     | Version:  4.1                                   |
|   \\  /    A nd           | Web:      www.OpenFOAM.org                      |
|    \\/     M anipulation  |                                                 |
\*---------------------------------------------------------------------------*/
FoamFile
{
    version     2.0;
    format      ascii;
    class       volScalarField;
    location    "1.5";
    object      nut;
}
// * * * * * * * * * * * * * * * * * * * * * * * * * * * * * * * * * * * * * //

dimensions      [0 2 -1 0 0 0 0];

internalField   nonuniform List<scalar> 
400
(
3.54458e-05
4.48195e-05
5.10452e-05
5.42162e-05
5.59292e-05
5.68633e-05
5.73299e-05
5.74731e-05
5.74388e-05
5.73568e-05
5.71786e-05
5.71116e-05
5.69875e-05
5.70089e-05
5.70693e-05
5.72947e-05
5.75706e-05
5.79804e-05
5.93839e-05
5.62353e-05
1.55244e-05
1.7706e-05
1.91051e-05
2.02209e-05
2.14787e-05
2.29311e-05
2.44566e-05
2.59337e-05
2.70111e-05
2.76559e-05
2.79359e-05
2.7937e-05
2.78401e-05
2.79126e-05
2.82608e-05
2.90317e-05
3.00284e-05
3.35812e-05
4.54305e-05
5.02847e-05
1.36074e-05
3.93948e-05
4.93466e-05
5.25071e-05
5.56725e-05
5.92772e-05
6.25778e-05
6.44268e-05
6.30654e-05
5.94607e-05
5.43379e-05
4.81767e-05
4.18977e-05
3.73515e-05
3.21803e-05
2.86503e-05
2.39125e-05
2.32053e-05
3.61839e-05
4.47846e-05
1.30624e-05
5.29962e-05
8.50196e-05
0.000101222
0.000109594
0.00011301
0.000111463
0.00010469
9.36263e-05
8.38361e-05
7.29739e-05
6.51771e-05
5.85321e-05
5.35231e-05
4.642e-05
4.03337e-05
2.95637e-05
2.2571e-05
3.33355e-05
4.1392e-05
1.3002e-05
6.27578e-05
0.000109795
0.000134755
0.000143097
0.000137698
0.000123773
0.000102454
8.68226e-05
7.13484e-05
6.12263e-05
5.54478e-05
5.25152e-05
5.11483e-05
4.87444e-05
4.4651e-05
3.34603e-05
2.41327e-05
3.37867e-05
3.89765e-05
1.29773e-05
7.20428e-05
0.000124682
0.000146704
0.00014503
0.000126079
0.000100686
7.6077e-05
5.74927e-05
4.81011e-05
4.52555e-05
4.41093e-05
4.42203e-05
4.48265e-05
4.32609e-05
3.88957e-05
2.80486e-05
2.4048e-05
3.25822e-05
3.69506e-05
1.3027e-05
8.13949e-05
0.000136117
0.000151392
0.000136959
0.000107161
7.77695e-05
5.30384e-05
4.22394e-05
3.94453e-05
3.87032e-05
3.87944e-05
4.05796e-05
4.11381e-05
3.72585e-05
3.291e-05
2.39042e-05
2.41204e-05
3.23624e-05
3.50267e-05
1.30699e-05
9.11815e-05
0.000144724
0.000151818
0.000122468
8.99841e-05
6.04945e-05
4.16896e-05
3.75097e-05
3.66244e-05
3.58101e-05
3.45641e-05
3.32488e-05
3.15123e-05
2.92427e-05
2.48719e-05
2.27726e-05
2.61863e-05
3.28131e-05
3.29368e-05
1.30502e-05
9.93821e-05
0.000150307
0.000147366
0.000110804
8.13192e-05
4.86526e-05
3.83255e-05
3.47102e-05
3.33559e-05
3.13992e-05
3.0921e-05
3.01379e-05
2.89638e-05
2.84592e-05
2.80862e-05
2.94484e-05
3.16666e-05
3.26991e-05
3.01954e-05
1.29322e-05
0.000103486
0.000152519
0.000144429
0.000106485
7.68569e-05
4.48889e-05
3.72419e-05
3.45024e-05
3.2877e-05
3.12546e-05
3.22139e-05
3.17743e-05
3.23894e-05
3.27988e-05
3.32328e-05
3.38976e-05
3.29341e-05
3.20195e-05
2.47593e-05
1.29297e-05
0.000103282
0.000151955
0.000143697
0.000106043
7.66323e-05
4.4828e-05
3.72086e-05
3.44771e-05
3.28502e-05
3.12441e-05
3.22127e-05
3.1775e-05
3.23971e-05
3.28086e-05
3.32419e-05
3.39093e-05
3.29452e-05
3.20293e-05
2.47618e-05
1.30427e-05
9.86376e-05
0.000148219
0.000144598
0.000108833
8.04084e-05
4.83737e-05
3.82884e-05
3.46535e-05
3.33059e-05
3.13145e-05
3.0923e-05
3.01269e-05
2.89742e-05
2.84883e-05
2.81093e-05
2.94781e-05
3.16939e-05
3.2714e-05
3.01973e-05
1.30605e-05
9.02205e-05
0.000141784
0.000147275
0.000118069
8.79695e-05
5.94971e-05
4.16085e-05
3.7472e-05
3.65686e-05
3.56498e-05
3.44502e-05
3.32476e-05
3.15174e-05
2.92642e-05
2.49024e-05
2.28048e-05
2.62267e-05
3.28428e-05
3.29375e-05
1.30199e-05
8.05329e-05
0.000133071
0.000146137
0.000130848
0.000102606
7.55698e-05
5.22191e-05
4.20646e-05
3.94752e-05
3.86628e-05
3.88111e-05
4.06047e-05
4.11309e-05
3.72841e-05
3.29451e-05
2.3932e-05
2.41465e-05
3.239e-05
3.50273e-05
1.29735e-05
7.14481e-05
0.000122221
0.000141665
0.000138272
0.000119507
9.62438e-05
7.35615e-05
5.63025e-05
4.77165e-05
4.50543e-05
4.39825e-05
4.41367e-05
4.47919e-05
4.32447e-05
3.89147e-05
2.80772e-05
2.40593e-05
3.26042e-05
3.69512e-05
1.30017e-05
6.24861e-05
0.000108371
0.000131232
0.00013739
0.000130888
0.000117572
9.79237e-05
8.38462e-05
6.91668e-05
5.98389e-05
5.45716e-05
5.18994e-05
5.06824e-05
4.84463e-05
4.45691e-05
3.34284e-05
2.41314e-05
3.3809e-05
3.89772e-05
1.30638e-05
5.29244e-05
8.44101e-05
9.93867e-05
0.000106395
0.000108806
0.000106837
0.000100509
9.044e-05
8.12404e-05
7.11449e-05
6.37467e-05
5.74662e-05
5.28028e-05
4.59589e-05
4.01413e-05
2.94624e-05
2.25485e-05
3.33447e-05
4.13928e-05
1.36094e-05
3.94208e-05
4.92596e-05
5.22129e-05
5.50124e-05
5.81921e-05
6.11297e-05
6.2836e-05
6.14824e-05
5.8108e-05
5.32234e-05
4.73278e-05
4.12565e-05
3.68827e-05
3.19204e-05
2.84431e-05
2.37986e-05
2.31703e-05
3.61873e-05
4.47853e-05
1.55258e-05
1.772e-05
1.91121e-05
2.0212e-05
2.14458e-05
2.28594e-05
2.43352e-05
2.5764e-05
2.68075e-05
2.74474e-05
2.7725e-05
2.77489e-05
2.7676e-05
2.77852e-05
2.81689e-05
2.89572e-05
2.99776e-05
3.35561e-05
4.54281e-05
5.0285e-05
3.54453e-05
4.48188e-05
5.10436e-05
5.42138e-05
5.59266e-05
5.68613e-05
5.73285e-05
5.74725e-05
5.74384e-05
5.73564e-05
5.71784e-05
5.71118e-05
5.69883e-05
5.70098e-05
5.70704e-05
5.7296e-05
5.75716e-05
5.79813e-05
5.93845e-05
5.62358e-05
)
;

boundaryField
{
    movingWall
    {
        type            nutkWallFunction;
        Cmu             0.09;
        kappa           0.41;
        E               9.8;
        value           nonuniform List<scalar> 
20
(
0
0
6.2917e-07
1.15085e-06
1.43143e-06
1.58492e-06
1.6619e-06
1.68639e-06
1.68074e-06
1.66693e-06
1.63677e-06
1.62504e-06
1.60262e-06
1.60566e-06
1.6148e-06
1.65059e-06
1.69477e-06
1.76072e-06
1.98641e-06
1.47637e-06
)
;
    }
    movingWallBottom
    {
        type            nutkWallFunction;
        Cmu             0.09;
        kappa           0.41;
        E               9.8;
        value           nonuniform List<scalar> 
20
(
0
0
6.29418e-07
1.1512e-06
1.43182e-06
1.58523e-06
1.66211e-06
1.68645e-06
1.68077e-06
1.66692e-06
1.63672e-06
1.62494e-06
1.60245e-06
1.60547e-06
1.61459e-06
1.65036e-06
1.69458e-06
1.76056e-06
1.98631e-06
1.47629e-06
)
;
    }
    fixedWalls
    {
        type            nutkWallFunction;
        Cmu             0.09;
        kappa           0.41;
        E               9.8;
        value           nonuniform List<scalar> 
40
(
0
0
0
0
0
0
0
0
0
0
0
0
0
0
0
0
0
0
0
0
1.47629e-06
5.00897e-07
0
0
0
0
0
0
0
0
0
0
0
0
0
0
0
0
5.00935e-07
1.47637e-06
)
;
    }
    frontAndBack
    {
        type            empty;
    }
}


// ************************************************************************* //
