/*--------------------------------*- C++ -*----------------------------------*\
| =========                 |                                                 |
| \\      /  F ield         | OpenFOAM: The Open Source CFD Toolbox           |
|  \\    /   O peration     | Version:  4.1                                   |
|   \\  /    A nd           | Web:      www.OpenFOAM.org                      |
|    \\/     M anipulation  |                                                 |
\*---------------------------------------------------------------------------*/
FoamFile
{
    version     2.0;
    format      ascii;
    class       volScalarField;
    location    "1.5";
    object      p;
}
// * * * * * * * * * * * * * * * * * * * * * * * * * * * * * * * * * * * * * //

dimensions      [0 2 -2 0 0 0 0];

internalField   nonuniform List<scalar> 
400
(
1.1553e-07
0.000854521
-0.00049705
-0.00153512
-0.00229104
-0.0030456
-0.00396331
-0.00508242
-0.00636356
-0.00771397
-0.00898217
-0.0100213
-0.0106612
-0.010805
-0.0102946
-0.00900411
-0.0063187
-0.000694489
0.00941387
0.0283016
-0.00460469
-0.00379053
-0.00344687
-0.00324151
-0.0033934
-0.00384923
-0.0045954
-0.00560924
-0.00683581
-0.00814786
-0.00939786
-0.0104041
-0.0110581
-0.0112695
-0.0110014
-0.0101295
-0.00844738
-0.00511612
0.000106732
0.0173899
-0.00273605
-0.00253494
-0.00264111
-0.0028513
-0.00323985
-0.0038571
-0.00473123
-0.00585716
-0.00717628
-0.00855868
-0.00983287
-0.0108145
-0.0114054
-0.011547
-0.0112806
-0.0106189
-0.00963353
-0.00767326
-0.00628898
0.00334051
-0.00250761
-0.00252765
-0.00266046
-0.00291166
-0.00336808
-0.00405735
-0.00501879
-0.00625765
-0.00770905
-0.0092161
-0.0105597
-0.0115341
-0.0120495
-0.0121055
-0.0117868
-0.0111495
-0.0104554
-0.0088814
-0.00916547
-0.00408712
-0.00213309
-0.00223708
-0.00244372
-0.00276246
-0.0032658
-0.00400874
-0.00507105
-0.00649721
-0.00819793
-0.00994959
-0.0114431
-0.0124368
-0.0128706
-0.0128024
-0.0123517
-0.011616
-0.0109911
-0.00943554
-0.00955593
-0.00578533
-0.00168941
-0.00185911
-0.00211258
-0.0024543
-0.00294378
-0.00368377
-0.00482983
-0.00650271
-0.00852726
-0.0106036
-0.0122864
-0.0133119
-0.0136626
-0.0134069
-0.0127783
-0.0118707
-0.0110587
-0.00945622
-0.0082671
-0.0044866
-0.00119876
-0.00141713
-0.001687
-0.00198878
-0.00238683
-0.00305828
-0.00424423
-0.00608701
-0.00839857
-0.0107198
-0.0125337
-0.0135993
-0.0139087
-0.0135396
-0.0127388
-0.0116729
-0.0104089
-0.00832393
-0.0055879
-0.00144688
-0.000714947
-0.000970699
-0.00122451
-0.00142073
-0.00165004
-0.00216095
-0.00326477
-0.00519198
-0.00766233
-0.0100995
-0.0119956
-0.0131
-0.0133801
-0.0129684
-0.0120597
-0.0107315
-0.00877546
-0.00560974
-0.00127266
0.00309714
-0.00031264
-0.000594727
-0.000809667
-0.000871978
-0.000914944
-0.00122762
-0.00220966
-0.00407237
-0.00647411
-0.00889248
-0.0108881
-0.0120683
-0.0123458
-0.0119199
-0.0108676
-0.00907665
-0.00610027
-0.00145014
0.00467607
0.00838375
-8.24124e-05
-0.000377007
-0.000560401
-0.000538759
-0.000475461
-0.000670213
-0.00155359
-0.00333267
-0.00568193
-0.00803086
-0.00992835
-0.0110613
-0.0113531
-0.0109267
-0.00971321
-0.00736893
-0.00338111
0.00245269
0.00918311
0.0125857
-8.13173e-05
-0.000375136
-0.000556888
-0.000534378
-0.00047208
-0.000668908
-0.00155462
-0.00333634
-0.00568706
-0.0080363
-0.00993413
-0.0110671
-0.0113585
-0.0109302
-0.00971525
-0.00737039
-0.00338212
0.00245152
0.00918186
0.0125845
-0.00030984
-0.000589927
-0.000800311
-0.000859201
-0.000904393
-0.0012231
-0.00221246
-0.00408195
-0.00648824
-0.00890934
-0.0109063
-0.0120855
-0.0123594
-0.011929
-0.0108734
-0.00907993
-0.00610213
-0.00145209
0.00467358
0.0083813
-0.000710898
-0.000964552
-0.0012129
-0.00140316
-0.00163234
-0.0021513
-0.00326738
-0.0052075
-0.00768619
-0.0101254
-0.0120213
-0.013123
-0.0133973
-0.0129796
-0.0120663
-0.0107346
-0.00877662
-0.00561067
-0.00127435
0.00309495
-0.00119366
-0.00141048
-0.00167574
-0.00197113
-0.00236535
-0.00304201
-0.00424166
-0.00610139
-0.008426
-0.0107532
-0.0125664
-0.0136272
-0.0139298
-0.0135525
-0.0127456
-0.0116758
-0.0104096
-0.00832395
-0.00558839
-0.00144797
-0.00168344
-0.00185227
-0.00210278
-0.00243951
-0.0029237
-0.00366299
-0.00481787
-0.00651044
-0.00854905
-0.010635
-0.0123198
-0.0133416
-0.0136865
-0.0134205
-0.0127855
-0.0118739
-0.0110591
-0.00945564
-0.00826646
-0.00448639
-0.00212658
-0.00223011
-0.00243536
-0.00275145
-0.00325071
-0.00398976
-0.00505521
-0.00649241
-0.00820588
-0.00996794
-0.0114659
-0.0124587
-0.0128881
-0.0128138
-0.0123573
-0.0116179
-0.0109904
-0.00943418
-0.00955421
-0.00578384
-0.00250116
-0.00252088
-0.00265326
-0.00290419
-0.00335912
-0.00404566
-0.00500623
-0.00624865
-0.00770739
-0.00922225
-0.0105709
-0.0115464
-0.0120597
-0.0121116
-0.0117893
-0.0111494
-0.0104535
-0.00887936
-0.00916301
-0.00408482
-0.00273045
-0.00252946
-0.00263632
-0.00284784
-0.00323715
-0.00385413
-0.00472764
-0.00585411
-0.00717586
-0.00856203
-0.00983912
-0.0108216
-0.011411
-0.0115496
-0.0112806
-0.0106171
-0.00963072
-0.00767066
-0.00628618
0.00334347
-0.00459907
-0.00378483
-0.00344208
-0.00323835
-0.0033922
-0.00384957
-0.00459659
-0.00561108
-0.00683882
-0.0081526
-0.00940392
-0.0104102
-0.0110626
-0.0112713
-0.0110005
-0.0101267
-0.0084438
-0.00511246
0.00011031
0.0173936
5.56046e-06
0.000859676
-0.000493093
-0.00153311
-0.00229133
-0.00304782
-0.00396673
-0.00508655
-0.00636843
-0.00771978
-0.00898859
-0.0100272
-0.0106654
-0.0108065
-0.0102938
-0.0090013
-0.00631459
-0.000690056
0.00941806
0.0283056
)
;

boundaryField
{
    movingWall
    {
        type            zeroGradient;
    }
    movingWallBottom
    {
        type            zeroGradient;
    }
    fixedWalls
    {
        type            zeroGradient;
    }
    frontAndBack
    {
        type            empty;
    }
}


// ************************************************************************* //
