/*--------------------------------*- C++ -*----------------------------------*\
| =========                 |                                                 |
| \\      /  F ield         | OpenFOAM: The Open Source CFD Toolbox           |
|  \\    /   O peration     | Version:  4.1                                   |
|   \\  /    A nd           | Web:      www.OpenFOAM.org                      |
|    \\/     M anipulation  |                                                 |
\*---------------------------------------------------------------------------*/
FoamFile
{
    version     2.0;
    format      ascii;
    class       surfaceScalarField;
    location    "1.5";
    object      phi;
}
// * * * * * * * * * * * * * * * * * * * * * * * * * * * * * * * * * * * * * //

dimensions      [0 3 -1 0 0 0 0];

internalField   nonuniform List<scalar> 
760
(
2.61779e-06
-2.6178e-06
4.08481e-06
-1.46702e-06
5.13563e-06
-1.05083e-06
6.05105e-06
-9.15418e-07
6.88678e-06
-8.35732e-07
7.66234e-06
-7.75555e-07
8.40101e-06
-7.38677e-07
9.10403e-06
-7.03022e-07
9.77901e-06
-6.74977e-07
1.03957e-05
-6.16647e-07
1.09578e-05
-5.62096e-07
1.14236e-05
-4.6588e-07
1.18207e-05
-3.97087e-07
1.20913e-05
-2.70572e-07
1.22802e-05
-1.88949e-07
1.22538e-05
2.64623e-08
1.18625e-05
3.91251e-07
1.05175e-05
1.34499e-06
7.4431e-06
3.07444e-06
7.4431e-06
-2.96065e-07
-2.32174e-06
-3.27639e-08
-1.73032e-06
4.68141e-07
-1.55173e-06
9.97771e-07
-1.44505e-06
1.5479e-06
-1.38586e-06
2.13113e-06
-1.35878e-06
2.74523e-06
-1.35278e-06
3.37732e-06
-1.33511e-06
3.98631e-06
-1.28397e-06
4.5412e-06
-1.17153e-06
4.99484e-06
-1.01574e-06
5.34103e-06
-8.12072e-07
5.55845e-06
-6.14504e-07
5.68157e-06
-3.93696e-07
5.67337e-06
-1.80747e-07
5.53572e-06
1.64112e-07
5.22106e-06
7.05913e-07
4.48527e-06
2.08078e-06
2.53563e-06
5.02408e-06
9.97873e-06
-3.19345e-07
-2.00239e-06
-1.73794e-07
-1.87587e-06
3.22497e-08
-1.75778e-06
2.83944e-07
-1.69674e-06
6.13856e-07
-1.71577e-06
1.03502e-06
-1.77995e-06
1.53557e-06
-1.85332e-06
2.08047e-06
-1.88002e-06
2.6118e-06
-1.8153e-06
3.06905e-06
-1.62878e-06
3.39013e-06
-1.33681e-06
3.55112e-06
-9.73064e-07
3.53728e-06
-6.00663e-07
3.37417e-06
-2.3059e-07
3.07727e-06
1.16157e-07
2.71331e-06
5.28066e-07
2.21035e-06
1.20887e-06
1.6597e-06
2.63143e-06
7.58874e-07
5.92491e-06
1.07376e-05
-1.95973e-07
-1.80642e-06
-1.86561e-07
-1.88528e-06
-9.29517e-08
-1.85138e-06
8.42471e-08
-1.87394e-06
3.53519e-07
-1.98504e-06
7.26031e-07
-2.15247e-06
1.18846e-06
-2.31575e-06
1.69903e-06
-2.39059e-06
2.18798e-06
-2.30426e-06
2.5754e-06
-2.0162e-06
2.80012e-06
-1.56153e-06
2.84608e-06
-1.01902e-06
2.7188e-06
-4.73377e-07
2.46168e-06
2.65218e-08
2.0647e-06
5.13141e-07
1.62843e-06
9.64336e-07
1.13072e-06
1.70658e-06
6.60357e-07
3.10179e-06
2.25763e-07
6.3595e-06
1.09634e-05
-1.26575e-07
-1.67984e-06
-2.03523e-07
-1.80833e-06
-2.06908e-07
-1.848e-06
-1.20968e-07
-1.95988e-06
6.39266e-08
-2.16994e-06
3.58713e-07
-2.44725e-06
7.60306e-07
-2.71734e-06
1.21079e-06
-2.84108e-06
1.61675e-06
-2.71022e-06
1.88858e-06
-2.28803e-06
1.98484e-06
-1.6578e-06
1.92214e-06
-9.56326e-07
1.73686e-06
-2.88095e-07
1.44307e-06
3.20311e-07
1.09828e-06
8.57938e-07
7.29371e-07
1.33324e-06
4.16332e-07
2.01962e-06
-4.76605e-08
3.56578e-06
-2.2222e-07
6.53406e-06
1.07411e-05
-1.64499e-07
-1.51534e-06
-3.20643e-07
-1.65219e-06
-4.28201e-07
-1.74044e-06
-4.64531e-07
-1.92355e-06
-4.09726e-07
-2.22474e-06
-2.43263e-07
-2.61372e-06
1.5646e-08
-2.97625e-06
2.78611e-07
-3.10404e-06
4.45704e-07
-2.87731e-06
4.6718e-07
-2.3095e-06
3.76049e-07
-1.56667e-06
2.22352e-07
-8.02629e-07
4.93107e-08
-1.15053e-07
-1.31281e-07
5.00902e-07
-2.84214e-07
1.01087e-06
-4.51262e-07
1.50029e-06
-5.4133e-07
2.10969e-06
-6.83665e-07
3.70812e-06
-7.50453e-07
6.60085e-06
9.9907e-06
-2.40605e-07
-1.27474e-06
-5.02853e-07
-1.38994e-06
-7.4063e-07
-1.50266e-06
-9.39428e-07
-1.72475e-06
-1.08391e-06
-2.08026e-06
-1.17351e-06
-2.52412e-06
-1.2471e-06
-2.90266e-06
-1.39981e-06
-2.95133e-06
-1.67088e-06
-2.60624e-06
-1.96491e-06
-2.01547e-06
-2.18629e-06
-1.34529e-06
-2.30672e-06
-6.82197e-07
-2.34555e-06
-7.62273e-08
-2.28722e-06
4.42582e-07
-2.17404e-06
8.9769e-07
-2.03656e-06
1.36281e-06
-1.98674e-06
2.05986e-06
-1.86613e-06
3.58751e-06
-1.51006e-06
6.24477e-06
8.48064e-06
-3.43211e-07
-9.31527e-07
-7.1887e-07
-1.01428e-06
-1.10108e-06
-1.12045e-06
-1.49873e-06
-1.3271e-06
-1.92745e-06
-1.65154e-06
-2.42249e-06
-2.02907e-06
-3.02219e-06
-2.30297e-06
-3.69933e-06
-2.27419e-06
-4.31724e-06
-1.98833e-06
-4.75455e-06
-1.57816e-06
-5.00975e-06
-1.09009e-06
-5.1016e-06
-5.90345e-07
-5.06023e-06
-1.1759e-07
-4.91727e-06
2.9962e-07
-4.69026e-06
6.70682e-07
-4.41469e-06
1.08723e-06
-4.11155e-06
1.75673e-06
-3.54706e-06
3.02302e-06
-2.19985e-06
4.89757e-06
6.28079e-06
-4.37178e-07
-4.94348e-07
-9.1316e-07
-5.38299e-07
-1.42975e-06
-6.03867e-07
-2.02875e-06
-7.28096e-07
-2.76444e-06
-9.1585e-07
-3.6755e-06
-1.11801e-06
-4.72712e-06
-1.25134e-06
-5.77583e-06
-1.22549e-06
-6.67244e-06
-1.09172e-06
-7.34986e-06
-9.00729e-07
-7.7815e-06
-6.58459e-07
-7.98367e-06
-3.88173e-07
-7.9931e-06
-1.08165e-07
-7.84312e-06
1.49642e-07
-7.53226e-06
3.59822e-07
-7.04748e-06
6.02459e-07
-6.30844e-06
1.01768e-06
-5.01485e-06
1.72943e-06
-2.94166e-06
2.82438e-06
3.33913e-06
-4.93596e-07
-7.52039e-10
-1.02865e-06
-3.24107e-09
-1.62575e-06
-6.77447e-09
-2.34458e-06
-9.26149e-09
-3.25255e-06
-7.88472e-09
-4.36878e-06
-1.78299e-09
-5.62469e-06
4.56803e-09
-6.85723e-06
7.05161e-09
-7.95532e-06
6.37029e-09
-8.86197e-06
5.92234e-09
-9.52506e-06
4.6295e-09
-9.91598e-06
2.74658e-09
-1.00257e-05
1.50615e-09
-9.87652e-06
5.06973e-10
-9.51691e-06
2.09502e-10
-8.91379e-06
-6.60193e-10
-7.8956e-06
-4.98574e-10
-6.16527e-06
-9.04956e-10
-3.34003e-06
-8.6744e-10
-9.00906e-10
-4.93851e-07
4.93099e-07
-1.02955e-06
5.32455e-07
-1.62774e-06
5.91423e-07
-2.34786e-06
7.10857e-07
-3.25662e-06
9.00874e-07
-4.3726e-06
1.1142e-06
-5.62801e-06
1.25998e-06
-6.86038e-06
1.23941e-06
-7.95799e-06
1.10399e-06
-8.86332e-06
9.11253e-07
-9.52594e-06
6.67249e-07
-9.917e-06
3.93802e-07
-1.00262e-05
1.10741e-07
-9.87655e-06
-1.49177e-07
-9.51648e-06
-3.59856e-07
-8.9134e-06
-6.03742e-07
-7.89515e-06
-1.01875e-06
-6.16505e-06
-1.731e-06
-3.33997e-06
-2.82595e-06
-3.34087e-06
-4.37446e-07
9.30544e-07
-9.14965e-07
1.00997e-06
-1.43473e-06
1.11119e-06
-2.03815e-06
1.31427e-06
-2.77804e-06
1.64076e-06
-3.69078e-06
2.02694e-06
-4.74128e-06
2.31048e-06
-5.78807e-06
2.28621e-06
-6.684e-06
1.99991e-06
-7.35986e-06
1.58711e-06
-7.78864e-06
1.09603e-06
-7.98805e-06
5.93209e-07
-7.99521e-06
1.17905e-07
-7.84385e-06
-3.00542e-07
-7.53177e-06
-6.71933e-07
-7.04669e-06
-1.08882e-06
-6.30742e-06
-1.75801e-06
-5.01419e-06
-3.02424e-06
-2.9414e-06
-4.89873e-06
-6.28227e-06
-3.43354e-07
1.2739e-06
-7.20583e-07
1.3872e-06
-1.10624e-06
1.49685e-06
-1.50905e-06
1.71708e-06
-1.94368e-06
2.0754e-06
-2.44371e-06
2.52697e-06
-3.04545e-06
2.91222e-06
-3.72008e-06
2.96083e-06
-4.3333e-06
2.61314e-06
-4.76653e-06
2.02035e-06
-5.01841e-06
1.34791e-06
-5.10751e-06
6.8231e-07
-5.06366e-06
7.40575e-08
-4.91868e-06
-4.45525e-07
-4.69022e-06
-9.00397e-07
-4.41393e-06
-1.36511e-06
-4.11038e-06
-2.06156e-06
-3.54611e-06
-3.58851e-06
-2.19942e-06
-6.24543e-06
-8.48169e-06
-2.40774e-07
1.51467e-06
-5.04222e-07
1.65065e-06
-7.44628e-07
1.73726e-06
-9.47074e-07
1.91952e-06
-1.09519e-06
2.22352e-06
-1.18807e-06
2.61985e-06
-1.2649e-06
2.98905e-06
-1.42075e-06
3.11669e-06
-1.69193e-06
2.88432e-06
-1.98233e-06
2.31074e-06
-2.19894e-06
1.56452e-06
-2.31522e-06
7.98596e-07
-2.35106e-06
1.09889e-07
-2.28989e-06
-5.06693e-07
-2.17493e-06
-1.01535e-06
-2.03656e-06
-1.50348e-06
-1.98616e-06
-2.11197e-06
-1.8655e-06
-3.70917e-06
-1.50966e-06
-6.60126e-06
-9.99135e-06
-1.6484e-07
1.67951e-06
-3.21874e-07
1.80769e-06
-4.3116e-07
1.84654e-06
-4.69502e-07
1.95786e-06
-4.15542e-07
2.16956e-06
-2.47788e-07
2.45209e-06
1.25099e-08
2.72875e-06
2.74676e-07
2.85452e-06
4.39144e-07
2.71985e-06
4.58658e-07
2.29122e-06
3.67712e-07
1.65546e-06
2.15722e-07
9.50585e-07
4.47632e-08
2.80848e-07
-1.3391e-07
-3.2802e-07
-2.85318e-07
-8.63945e-07
-4.51463e-07
-1.33734e-06
-5.41044e-07
-2.02238e-06
-6.83402e-07
-3.56681e-06
-7.50215e-07
-6.53445e-06
-1.07416e-05
-1.27046e-07
1.80656e-06
-2.04726e-07
1.88537e-06
-2.09345e-07
1.85116e-06
-1.24594e-07
1.87311e-06
6.06145e-08
1.98435e-06
3.5849e-07
2.15422e-06
7.65543e-07
2.3217e-06
1.22059e-06
2.39948e-06
1.62811e-06
2.31233e-06
1.89897e-06
2.02036e-06
1.99318e-06
1.56126e-06
1.92846e-06
1.0153e-06
1.74138e-06
4.67929e-07
1.44626e-06
-3.29e-08
1.10029e-06
-5.17976e-07
7.30673e-07
-9.67718e-07
4.17034e-07
-1.70874e-06
-4.72912e-08
-3.10249e-06
-2.21968e-07
-6.35977e-06
-1.09635e-05
-1.96358e-07
2.00292e-06
-1.87373e-07
1.87638e-06
-9.46417e-08
1.75843e-06
8.15456e-08
1.69693e-06
3.50481e-07
1.71542e-06
7.24936e-07
1.77976e-06
1.19201e-06
1.85463e-06
1.70822e-06
1.88327e-06
2.20117e-06
1.81938e-06
2.59002e-06
1.63151e-06
2.81391e-06
1.33737e-06
2.8577e-06
9.71509e-07
2.72778e-06
5.97856e-07
2.46749e-06
2.27384e-07
2.06822e-06
-1.18707e-07
1.63023e-06
-5.29724e-07
1.13131e-06
-1.20982e-06
6.60554e-07
-2.63173e-06
2.25805e-07
-5.92503e-06
-1.07377e-05
-3.19278e-07
2.3222e-06
-1.73694e-07
1.7308e-06
3.23082e-08
1.55243e-06
2.83486e-07
1.44575e-06
6.12617e-07
1.38629e-06
1.03355e-06
1.35883e-06
1.53535e-06
1.35283e-06
2.08302e-06
1.33559e-06
2.61748e-06
1.28492e-06
3.07675e-06
1.17223e-06
3.39831e-06
1.01581e-06
3.55842e-06
8.11399e-07
3.54289e-06
6.13385e-07
3.37777e-06
3.92501e-07
3.07925e-06
1.79818e-07
2.71409e-06
-1.64565e-07
2.21044e-06
-7.06177e-07
1.65965e-06
-2.08094e-06
7.58845e-07
-5.02422e-06
-9.97888e-06
-2.95755e-07
2.61795e-06
-3.22214e-08
1.46726e-06
4.69021e-07
1.05119e-06
9.98937e-07
9.15832e-07
1.54913e-06
8.36097e-07
2.13219e-06
7.75764e-07
2.74626e-06
7.38762e-07
3.37874e-06
7.03109e-07
3.98858e-06
6.75087e-07
4.54411e-06
6.16707e-07
4.99792e-06
5.62002e-07
5.34375e-06
4.65567e-07
5.56049e-06
3.96639e-07
5.6828e-06
2.702e-07
5.674e-06
1.88617e-07
5.53609e-06
-2.66577e-08
5.22124e-06
-3.9133e-07
4.48538e-06
-1.34507e-06
2.53569e-06
-3.07454e-06
-7.44319e-06
2.61795e-06
4.08521e-06
5.1364e-06
6.05223e-06
6.88833e-06
7.6641e-06
8.40286e-06
9.10597e-06
9.78105e-06
1.03978e-05
1.09598e-05
1.14253e-05
1.1822e-05
1.20922e-05
1.22808e-05
1.22541e-05
1.18628e-05
1.05177e-05
7.44319e-06
)
;

boundaryField
{
    movingWall
    {
        type            calculated;
        value           uniform 0;
    }
    movingWallBottom
    {
        type            calculated;
        value           uniform 0;
    }
    fixedWalls
    {
        type            calculated;
        value           uniform 0;
    }
    frontAndBack
    {
        type            empty;
        value           nonuniform 0();
    }
}


// ************************************************************************* //
