/*--------------------------------*- C++ -*----------------------------------*\
| =========                 |                                                 |
| \\      /  F ield         | OpenFOAM: The Open Source CFD Toolbox           |
|  \\    /   O peration     | Version:  4.1                                   |
|   \\  /    A nd           | Web:      www.OpenFOAM.org                      |
|    \\/     M anipulation  |                                                 |
\*---------------------------------------------------------------------------*/
FoamFile
{
    version     2.0;
    format      ascii;
    class       volVectorField;
    location    "1.5";
    object      U;
}
// * * * * * * * * * * * * * * * * * * * * * * * * * * * * * * * * * * * * * //

dimensions      [0 1 -1 0 0 0 0];

internalField   nonuniform List<vector> 
400
(
(0.0527346 -0.0994396 0)
(0.0612379 -0.0619112 0)
(0.0920236 -0.0389432 0)
(0.113783 -0.0284224 0)
(0.130687 -0.0225491 0)
(0.146372 -0.0185821 0)
(0.160692 -0.0158808 0)
(0.175355 -0.0136002 0)
(0.188325 -0.0122078 0)
(0.201722 -0.0105261 0)
(0.212776 -0.00975509 0)
(0.223635 -0.00812127 0)
(0.231889 -0.0077897 0)
(0.238719 -0.0058505 0)
(0.243581 -0.00565759 0)
(0.244718 -0.00221606 0)
(0.240628 0.000396475 0)
(0.228676 0.00778743 0)
(0.17924 0.0209274 0)
(0.168598 0.117574 0)
(-0.00230821 -0.0257197 0)
(-0.00714867 -0.0124712 0)
(0.00537567 -0.0139121 0)
(0.0143101 -0.0156932 0)
(0.0251608 -0.0164346 0)
(0.0366833 -0.0167732 0)
(0.0485498 -0.0171448 0)
(0.0611416 -0.0173213 0)
(0.0731654 -0.0171151 0)
(0.085237 -0.0160375 0)
(0.094745 -0.0144131 0)
(0.103747 -0.0119777 0)
(0.108405 -0.00967916 0)
(0.11307 -0.00665109 0)
(0.11253 -0.00381985 0)
(0.112412 0.00236862 0)
(0.104063 0.0111721 0)
(0.10345 0.035537 0)
(0.051942 0.0807601 0)
(0.0848863 0.155067 0)
(-0.00532826 -0.0506548 0)
(-0.0060289 -0.0431645 0)
(-0.00156062 -0.0381353 0)
(0.00296196 -0.0349882 0)
(0.00863123 -0.0337596 0)
(0.0161328 -0.0335925 0)
(0.0253731 -0.0339177 0)
(0.0358943 -0.0337723 0)
(0.0466919 -0.0323872 0)
(0.056781 -0.029249 0)
(0.0646178 -0.0246706 0)
(0.069914 -0.0189858 0)
(0.071086 -0.0132631 0)
(0.0703736 -0.00742365 0)
(0.0642558 -0.00196385 0)
(0.0596723 0.00553265 0)
(0.0447637 0.0192706 0)
(0.0503016 0.0504161 0)
(0.000440598 0.11624 0)
(0.0457436 0.208094 0)
(-0.00298384 -0.036067 0)
(-0.00450321 -0.0370214 0)
(-0.00293059 -0.0359761 0)
(-0.000495002 -0.0357333 0)
(0.00394589 -0.0371536 0)
(0.0103659 -0.0396035 0)
(0.0187705 -0.0420328 0)
(0.0286095 -0.0430383 0)
(0.0387548 -0.0415785 0)
(0.0477065 -0.0369701 0)
(0.0539984 -0.0296423 0)
(0.057027 -0.0206809 0)
(0.0562315 -0.0114479 0)
(0.0530321 -0.00235946 0)
(0.0453949 0.00612964 0)
(0.0392648 0.0148434 0)
(0.021879 0.0297374 0)
(0.0304427 0.0590635 0)
(-0.0133171 0.12786 0)
(0.0290513 0.229503 0)
(-0.00144079 -0.0351882 0)
(-0.0037603 -0.0373188 0)
(-0.00437049 -0.03744 0)
(-0.00363163 -0.0388977 0)
(-0.00104228 -0.0421354 0)
(0.0037413 -0.0465534 0)
(0.0107909 -0.0508329 0)
(0.0194762 -0.0529745 0)
(0.0281778 -0.0511827 0)
(0.0350478 -0.0444991 0)
(0.0388766 -0.0339111 0)
(0.0395082 -0.0212838 0)
(0.0371981 -0.00857002 0)
(0.0328144 0.00320443 0)
(0.0255363 0.0133687 0)
(0.0205952 0.0225901 0)
(0.00519661 0.0369681 0)
(0.0158712 0.0661784 0)
(-0.0204671 0.1327 0)
(0.0172483 0.226959 0)
(-0.00190835 -0.0319089 0)
(-0.00510827 -0.0348975 0)
(-0.00771209 -0.0363605 0)
(-0.00919631 -0.0394558 0)
(-0.0090789 -0.0446806 0)
(-0.00681385 -0.0514614 0)
(-0.00244396 -0.0581167 0)
(0.0029923 -0.061384 0)
(0.00728831 -0.0586184 0)
(0.00901215 -0.0493584 0)
(0.00833249 -0.035326 0)
(0.00611454 -0.0196358 0)
(0.0029677 -0.00459385 0)
(-0.000490285 0.00845603 0)
(-0.00439469 0.0191443 0)
(-0.00576861 0.0289351 0)
(-0.0147601 0.0414171 0)
(-0.00361621 0.0715068 0)
(-0.029657 0.131087 0)
(0.00881854 0.212718 0)
(-0.0026537 -0.0281811 0)
(-0.00765939 -0.0308266 0)
(-0.0125458 -0.0330091 0)
(-0.016879 -0.0372744 0)
(-0.0202016 -0.0441087 0)
(-0.0222958 -0.0529181 0)
(-0.0238309 -0.0610086 0)
(-0.0261196 -0.063121 0)
(-0.031711 -0.0574948 0)
(-0.0380459 -0.0446988 0)
(-0.0429427 -0.0291158 0)
(-0.0457577 -0.0139814 0)
(-0.0466675 -0.000806123 0)
(-0.0458952 0.0105081 0)
(-0.0439886 0.0199155 0)
(-0.0416512 0.0288026 0)
(-0.0435458 0.0405398 0)
(-0.0340933 0.0727097 0)
(-0.0445813 0.130525 0)
(-0.00422931 0.189138 0)
(-0.00386375 -0.0221986 0)
(-0.0108412 -0.0243939 0)
(-0.0181335 -0.0267876 0)
(-0.0256921 -0.0313265 0)
(-0.0335423 -0.0384815 0)
(-0.0423129 -0.0470812 0)
(-0.053073 -0.0536511 0)
(-0.067749 -0.0532085 0)
(-0.08314 -0.0451854 0)
(-0.0937255 -0.0345839 0)
(-0.0999475 -0.0232485 0)
(-0.102576 -0.0118533 0)
(-0.101961 -0.00153655 0)
(-0.0993466 0.00821622 0)
(-0.0962328 0.0170764 0)
(-0.0928056 0.0264373 0)
(-0.0884027 0.0415791 0)
(-0.074929 0.0726526 0)
(-0.0605128 0.11942 0)
(-0.0157286 0.155878 0)
(-0.0050143 -0.0143764 0)
(-0.0137231 -0.0157797 0)
(-0.0231419 -0.0176503 0)
(-0.0337578 -0.021165 0)
(-0.0465136 -0.0265614 0)
(-0.0624305 -0.0323737 0)
(-0.0826375 -0.0359249 0)
(-0.106637 -0.0343952 0)
(-0.127543 -0.030031 0)
(-0.143511 -0.02405 0)
(-0.154715 -0.016839 0)
(-0.159643 -0.00938585 0)
(-0.160219 -0.00199 0)
(-0.159073 0.00534304 0)
(-0.15592 0.0121262 0)
(-0.149383 0.0203436 0)
(-0.136965 0.0337488 0)
(-0.112795 0.0567513 0)
(-0.0723472 0.0889408 0)
(-0.0394128 0.105159 0)
(-0.00572071 -0.00498839 0)
(-0.0154399 -0.00550878 0)
(-0.026096 -0.006255 0)
(-0.0385651 -0.00759636 0)
(-0.0542766 -0.0095397 0)
(-0.0740109 -0.0115313 0)
(-0.0986557 -0.0128433 0)
(-0.126353 -0.0126216 0)
(-0.151289 -0.0113411 0)
(-0.171428 -0.00952505 0)
(-0.187164 -0.00667576 0)
(-0.196373 -0.00360612 0)
(-0.200529 -0.000911088 0)
(-0.201182 0.00219238 0)
(-0.197198 0.004881 0)
(-0.188376 0.00798172 0)
(-0.169877 0.0138164 0)
(-0.137968 0.0225474 0)
(-0.0896115 0.0349285 0)
(-0.0426082 0.0405128 0)
(-0.00572331 0.00495978 0)
(-0.0154487 0.00538187 0)
(-0.0261197 0.00598808 0)
(-0.0386154 0.00722876 0)
(-0.0543558 0.00922345 0)
(-0.0740926 0.0114575 0)
(-0.0987251 0.0130247 0)
(-0.12642 0.0128978 0)
(-0.151355 0.0115863 0)
(-0.171465 0.00975744 0)
(-0.187182 0.00686371 0)
(-0.196406 0.00372142 0)
(-0.20056 0.000968453 0)
(-0.201188 -0.00217595 0)
(-0.197191 -0.00487401 0)
(-0.188371 -0.00801129 0)
(-0.169865 -0.0138393 0)
(-0.137964 -0.022588 0)
(-0.0896086 -0.0349673 0)
(-0.0426053 -0.0405525 0)
(-0.0050153 0.0143538 0)
(-0.0137364 0.0156742 0)
(-0.0231949 0.017425 0)
(-0.0338861 0.0208522 0)
(-0.0467499 0.0262831 0)
(-0.0627311 0.0322895 0)
(-0.0829449 0.0360745 0)
(-0.106901 0.0346674 0)
(-0.127778 0.0302738 0)
(-0.143738 0.024225 0)
(-0.154891 0.0169764 0)
(-0.159755 0.00946898 0)
(-0.160272 0.00201781 0)
(-0.159093 -0.00534026 0)
(-0.155921 -0.0121377 0)
(-0.149364 -0.0203704 0)
(-0.136947 -0.0337719 0)
(-0.112777 -0.0567777 0)
(-0.0723435 -0.0889683 0)
(-0.0394042 -0.105193 0)
(-0.00386312 0.0221803 0)
(-0.0108526 0.024323 0)
(-0.0181871 0.0266355 0)
(-0.0258244 0.031119 0)
(-0.0337945 0.0383238 0)
(-0.0426938 0.0470675 0)
(-0.0535333 0.0537791 0)
(-0.0682352 0.0533799 0)
(-0.0835155 0.0453657 0)
(-0.0939915 0.0347515 0)
(-0.100157 0.0233486 0)
(-0.102718 0.0118888 0)
(-0.102041 0.0015244 0)
(-0.0993863 -0.00825367 0)
(-0.096245 -0.017111 0)
(-0.0927938 -0.0264703 0)
(-0.0883818 -0.0416037 0)
(-0.0749073 -0.0726701 0)
(-0.0605031 -0.119435 0)
(-0.0157223 -0.155902 0)
(-0.00265441 0.028166 0)
(-0.00767019 0.0307849 0)
(-0.0125891 0.0329207 0)
(-0.0169814 0.0371609 0)
(-0.0203732 0.0440575 0)
(-0.0225467 0.0530368 0)
(-0.0241593 0.0612549 0)
(-0.0265261 0.0633264 0)
(-0.0321756 0.0575834 0)
(-0.0384469 0.0446928 0)
(-0.0432387 0.0290807 0)
(-0.0459581 0.0139338 0)
(-0.0467942 0.000736588 0)
(-0.0459647 -0.0105926 0)
(-0.0440205 -0.0199859 0)
(-0.0416588 -0.0288566 0)
(-0.0435381 -0.0405798 0)
(-0.0340804 -0.0727298 0)
(-0.044571 -0.130533 0)
(-0.00422607 -0.189153 0)
(-0.00191176 0.0318989 0)
(-0.00512196 0.0348764 0)
(-0.00774922 0.0363153 0)
(-0.00927053 0.0393969 0)
(-0.00918262 0.0446685 0)
(-0.00691145 0.0515861 0)
(-0.0025161 0.0584044 0)
(0.00293089 0.0617137 0)
(0.00718033 0.058845 0)
(0.0088491 0.049435 0)
(0.00816277 0.0352737 0)
(0.00596583 0.0195067 0)
(0.00285258 0.0044337 0)
(-0.000561458 -0.00860584 0)
(-0.00442701 -0.0192615 0)
(-0.00578001 -0.0290152 0)
(-0.0147564 -0.0414731 0)
(-0.00361051 -0.0715314 0)
(-0.0296514 -0.131097 0)
(0.00882036 -0.212728 0)
(-0.00144592 0.0351869 0)
(-0.0037754 0.0373152 0)
(-0.00440514 0.0374261 0)
(-0.00369269 0.0388726 0)
(-0.00111788 0.042126 0)
(0.00369908 0.0466189 0)
(0.0108361 0.0510184 0)
(0.0196273 0.0532378 0)
(0.0283825 0.0514181 0)
(0.0352547 0.0446334 0)
(0.0390574 0.0339282 0)
(0.0396538 0.0212082 0)
(0.0373094 0.00843981 0)
(0.0329008 -0.00333751 0)
(0.0255887 -0.013482 0)
(0.0206257 -0.0226687 0)
(0.00521723 -0.0370182 0)
(0.0158808 -0.0661933 0)
(-0.0204618 -0.132703 0)
(0.0172495 -0.226964 0)
(-0.00298808 0.0360752 0)
(-0.0045136 0.037029 0)
(-0.00295149 0.0359828 0)
(-0.000543596 0.0357234 0)
(0.00388024 0.0371315 0)
(0.010318 0.0395987 0)
(0.0187905 0.0420794 0)
(0.0287355 0.0431416 0)
(0.0389746 0.041699 0)
(0.0479799 0.0370482 0)
(0.0542781 0.0296602 0)
(0.0572826 0.0206411 0)
(0.0564389 0.0113723 0)
(0.053188 0.00227602 0)
(0.0454852 -0.00620105 0)
(0.0393184 -0.0148938 0)
(0.0218966 -0.0297703 0)
(0.0304479 -0.0590755 0)
(-0.0133151 -0.127866 0)
(0.0290515 -0.229506 0)
(-0.00532774 0.050665 0)
(-0.00602636 0.0431736 0)
(-0.00155836 0.0381517 0)
(0.00296069 0.0350066 0)
(0.00861386 0.0337718 0)
(0.0161023 0.033595 0)
(0.0253526 0.0339209 0)
(0.035914 0.0337852 0)
(0.0467686 0.0324111 0)
(0.0569134 0.0292622 0)
(0.0647727 0.0246645 0)
(0.0700721 0.0189608 0)
(0.071214 0.0132291 0)
(0.0704709 0.00738954 0)
(0.0643093 0.00194178 0)
(0.0597004 -0.00554556 0)
(0.044765 -0.0192782 0)
(0.0503016 -0.050419 0)
(0.000438766 -0.116242 0)
(0.045744 -0.208098 0)
(-0.00230626 0.0257277 0)
(-0.00713817 0.0124825 0)
(0.00538977 0.0139251 0)
(0.0143305 0.0157048 0)
(0.0251835 0.0164412 0)
(0.036705 0.016772 0)
(0.0485701 0.0171381 0)
(0.0611661 0.0173139 0)
(0.0732006 0.0171078 0)
(0.0852896 0.0160281 0)
(0.0948011 0.0143995 0)
(0.103808 0.0119586 0)
(0.108452 0.0096587 0)
(0.113105 0.00663342 0)
(0.112548 0.00380701 0)
(0.112421 -0.00237499 0)
(0.104067 -0.0111752 0)
(0.103452 -0.0355378 0)
(0.0519435 -0.0807613 0)
(0.0848877 -0.155068 0)
(0.0527369 0.0994374 0)
(0.0612432 0.0619095 0)
(0.0920345 0.0389448 0)
(0.113801 0.0284269 0)
(0.130713 0.022557 0)
(0.146405 0.0185926 0)
(0.160728 0.0158931 0)
(0.175394 0.0136136 0)
(0.188365 0.0122208 0)
(0.201763 0.0105375 0)
(0.212817 0.00976391 0)
(0.223673 0.00812704 0)
(0.231921 0.00779138 0)
(0.238741 0.00585195 0)
(0.243595 0.00565473 0)
(0.244726 0.00221746 0)
(0.240633 -0.000395537 0)
(0.228679 -0.00778864 0)
(0.179242 -0.0209295 0)
(0.168599 -0.117577 0)
)
;

boundaryField
{
    movingWall
    {
        type            fixedValue;
        value           uniform (1 0 0);
    }
    movingWallBottom
    {
        type            fixedValue;
        value           uniform (1 0 0);
    }
    fixedWalls
    {
        type            noSlip;
    }
    frontAndBack
    {
        type            empty;
    }
}


// ************************************************************************* //
