/*--------------------------------*- C++ -*----------------------------------*\
| =========                 |                                                 |
| \\      /  F ield         | OpenFOAM: The Open Source CFD Toolbox           |
|  \\    /   O peration     | Version:  4.1                                   |
|   \\  /    A nd           | Web:      www.OpenFOAM.org                      |
|    \\/     M anipulation  |                                                 |
\*---------------------------------------------------------------------------*/
FoamFile
{
    version     2.0;
    format      ascii;
    class       volScalarField;
    location    "7.5";
    object      epsilon;
}
// * * * * * * * * * * * * * * * * * * * * * * * * * * * * * * * * * * * * * //

dimensions      [0 2 -3 0 0 0 0];

internalField   nonuniform List<scalar> 
400
(
0.0400311
0.0702035
0.091617
0.103064
0.11078
0.116473
0.12118
0.125013
0.128332
0.131063
0.133541
0.135766
0.138037
0.140369
0.143485
0.146412
0.149903
0.15481
0.171215
0.149082
0.00975178
0.00804213
0.00873913
0.0096892
0.0106672
0.011736
0.0130044
0.0145034
0.0161503
0.0179685
0.0197959
0.0218027
0.023546
0.0257163
0.0270882
0.0309251
0.0361421
0.0486609
0.0749463
0.110596
0.0110395
0.00577563
0.00425967
0.00384837
0.00387631
0.00409587
0.00459876
0.00532876
0.00619119
0.00714957
0.00809995
0.00904693
0.00983077
0.0105518
0.0109834
0.0119165
0.0136069
0.0196868
0.0369475
0.0811526
0.0120921
0.00515363
0.00362618
0.00329197
0.00337707
0.00369281
0.00424834
0.00491495
0.00561016
0.00625966
0.00677972
0.00711354
0.00723248
0.00721486
0.00708251
0.00718921
0.00790246
0.0119452
0.0248486
0.0660658
0.0129092
0.00500224
0.00366436
0.00356673
0.00388847
0.00447095
0.00512736
0.00577321
0.00631438
0.00668763
0.00682886
0.00673084
0.00640618
0.00591747
0.00539264
0.00517567
0.00567677
0.00917036
0.0200559
0.0570375
0.0133356
0.00512204
0.00417322
0.00415536
0.00472436
0.00545535
0.00616837
0.00675506
0.0071038
0.00721085
0.00702125
0.00656242
0.00589097
0.00511846
0.00445234
0.00419893
0.00488653
0.0082799
0.018996
0.0500816
0.0138242
0.00589593
0.00482222
0.00472972
0.00536624
0.00617512
0.0068694
0.00733483
0.00752569
0.00748379
0.00706201
0.00639121
0.00557532
0.00476751
0.00430594
0.00421969
0.00516438
0.00876702
0.0195464
0.0437699
0.0141483
0.00658347
0.00515013
0.00498393
0.00559324
0.00639794
0.00701647
0.00733052
0.00742314
0.00723885
0.00673572
0.00610091
0.00545128
0.00503507
0.00489263
0.0051625
0.00664781
0.0106995
0.0211406
0.0370352
0.014273
0.0073068
0.00515544
0.00454292
0.00452112
0.00496506
0.00525454
0.00544738
0.00551703
0.00552615
0.00550628
0.00552188
0.00569402
0.00604145
0.0067137
0.00796605
0.0103152
0.0145849
0.0211657
0.0288481
0.0143079
0.00766626
0.00493374
0.00379762
0.00346828
0.00341114
0.00349159
0.00369125
0.00395104
0.0043206
0.00478392
0.00539812
0.00618241
0.00721801
0.00859897
0.0104786
0.0129907
0.0160119
0.0174912
0.016081
0.0142923
0.00765195
0.00493875
0.00381481
0.00349236
0.00343947
0.00352977
0.00372903
0.00398687
0.00434685
0.00479952
0.00539768
0.00616613
0.00718243
0.00854764
0.010421
0.0129552
0.016129
0.0177258
0.0166821
0.0142355
0.00726322
0.00511809
0.00450745
0.00448503
0.00493962
0.00525142
0.00546536
0.0055463
0.00555646
0.00551523
0.00550384
0.00561597
0.00591836
0.0065182
0.00771735
0.0100043
0.0143077
0.0212002
0.0294461
0.0140852
0.00652842
0.00508404
0.00489368
0.00547569
0.00627347
0.00689238
0.00721663
0.00731605
0.00715572
0.00666661
0.0060386
0.00538247
0.00494376
0.00478824
0.00502741
0.00647587
0.0104829
0.0209266
0.0372955
0.0137357
0.00583507
0.00474147
0.00464199
0.00525278
0.0060478
0.00672945
0.00718648
0.0073737
0.00734108
0.00693542
0.00628308
0.00548638
0.0046945
0.00423969
0.00415634
0.00508997
0.00865439
0.0193878
0.0439437
0.0132579
0.00506544
0.00410703
0.00407962
0.00462906
0.00534148
0.0060353
0.00660756
0.0069558
0.00706778
0.00689237
0.00645414
0.0058077
0.00505973
0.00441117
0.00416375
0.00484711
0.00821348
0.0188645
0.0501572
0.0128431
0.00496864
0.0036157
0.00351023
0.00381864
0.00438469
0.00502189
0.00565068
0.00618256
0.0065545
0.00670351
0.0066195
0.00631792
0.00585153
0.0053486
0.00514943
0.00565538
0.0091296
0.0199481
0.0570541
0.0120325
0.00512379
0.00359732
0.00325714
0.00333417
0.00363296
0.00416804
0.00481419
0.00549287
0.00613262
0.00665069
0.00699161
0.00712621
0.00712283
0.00701449
0.007135
0.00785941
0.0118998
0.0248201
0.0660303
0.0109814
0.00574801
0.00423596
0.00382039
0.00384214
0.00404743
0.00452645
0.00523274
0.00607104
0.00700991
0.00794601
0.00888817
0.00967404
0.0104061
0.010852
0.0118103
0.0135139
0.0196007
0.0368796
0.0811027
0.00970985
0.00801741
0.00871486
0.00965324
0.0106131
0.011658
0.0128939
0.0143602
0.0159707
0.0177583
0.0195537
0.0215425
0.0232688
0.0254383
0.026825
0.0307016
0.0359402
0.048491
0.0748373
0.110463
0.0400303
0.0702643
0.0916687
0.103055
0.11069
0.116311
0.120945
0.124727
0.127995
0.130701
0.133145
0.135367
0.137623
0.139972
0.143095
0.146032
0.149544
0.154468
0.170919
0.148883
)
;

boundaryField
{
    movingWall
    {
        Cmu             0.09;
        kappa           0.41;
        E               9.8;
        type            epsilonWallFunction;
        value           nonuniform List<scalar> 
20
(
0.0400303
0.0702643
0.0916687
0.103055
0.11069
0.116311
0.120945
0.124727
0.127995
0.130701
0.133145
0.135367
0.137623
0.139972
0.143095
0.146032
0.149544
0.154468
0.170919
0.148883
)
;
    }
    movingWallBottom
    {
        Cmu             0.09;
        kappa           0.41;
        E               9.8;
        type            epsilonWallFunction;
        value           nonuniform List<scalar> 
20
(
0.0400311
0.0702035
0.091617
0.103064
0.11078
0.116473
0.12118
0.125013
0.128332
0.131063
0.133541
0.135766
0.138037
0.140369
0.143485
0.146412
0.149903
0.15481
0.171215
0.149082
)
;
    }
    fixedWalls
    {
        Cmu             0.09;
        kappa           0.41;
        E               9.8;
        type            epsilonWallFunction;
        value           nonuniform List<scalar> 
40
(
0.0400311
0.00975178
0.0110395
0.0120921
0.0129092
0.0133356
0.0138242
0.0141483
0.014273
0.0143079
0.0142923
0.0142355
0.0140852
0.0137357
0.0132579
0.0128431
0.0120325
0.0109814
0.00970985
0.0400303
0.149082
0.110596
0.0811526
0.0660658
0.0570375
0.0500816
0.0437699
0.0370352
0.0288481
0.016081
0.0166821
0.0294461
0.0372955
0.0439437
0.0501572
0.0570541
0.0660303
0.0811027
0.110463
0.148883
)
;
    }
    frontAndBack
    {
        type            empty;
    }
}


// ************************************************************************* //
