/*--------------------------------*- C++ -*----------------------------------*\
| =========                 |                                                 |
| \\      /  F ield         | OpenFOAM: The Open Source CFD Toolbox           |
|  \\    /   O peration     | Version:  4.1                                   |
|   \\  /    A nd           | Web:      www.OpenFOAM.org                      |
|    \\/     M anipulation  |                                                 |
\*---------------------------------------------------------------------------*/
FoamFile
{
    version     2.0;
    format      ascii;
    class       volScalarField;
    location    "7.5";
    object      k;
}
// * * * * * * * * * * * * * * * * * * * * * * * * * * * * * * * * * * * * * //

dimensions      [0 2 -2 0 0 0 0];

internalField   nonuniform List<scalar> 
400
(
0.00396543
0.00576677
0.0068867
0.00744903
0.00781629
0.00808189
0.00829818
0.00847226
0.00862156
0.00874344
0.00885331
0.00895138
0.00905093
0.00915256
0.00928751
0.00941339
0.00956243
0.00977
0.0104486
0.0095275
0.0015467
0.0016799
0.00196701
0.00214303
0.00226257
0.00238796
0.00253975
0.00272576
0.00293803
0.00317436
0.00341544
0.00366044
0.00387002
0.00408091
0.00417877
0.00437939
0.00455395
0.00508221
0.00644276
0.00780764
0.00168001
0.00166377
0.00179528
0.0018984
0.00197998
0.00210817
0.00228952
0.00251803
0.00277375
0.0030348
0.00326986
0.00345703
0.0035773
0.0035888
0.003534
0.00341973
0.00319872
0.00337961
0.00430291
0.00635179
0.00178518
0.00170296
0.00179336
0.00192025
0.00211437
0.00237566
0.00267401
0.00298063
0.00326214
0.00348954
0.00363627
0.00368081
0.00363823
0.00350695
0.00325905
0.00298452
0.00267791
0.00279767
0.00351235
0.00553791
0.0018647
0.00192658
0.0020214
0.00215757
0.00241249
0.00273581
0.00307956
0.00339841
0.00364444
0.00379522
0.0038344
0.00376769
0.0035838
0.00330008
0.00294043
0.00259736
0.00233557
0.00250558
0.00319379
0.00502112
0.00190554
0.00212672
0.00217851
0.00232187
0.00263691
0.00300353
0.00334648
0.00362361
0.00381327
0.0038857
0.00382911
0.00364026
0.00333943
0.00295721
0.00254316
0.00220304
0.00205415
0.00225788
0.0029905
0.00460411
0.00195179
0.00236514
0.00232666
0.00239761
0.00273158
0.00310536
0.00342534
0.00363656
0.00372021
0.00370478
0.00354434
0.0032705
0.0029093
0.00249849
0.00208602
0.00186646
0.00180751
0.00211261
0.00291073
0.00420865
0.00198216
0.00259869
0.0023865
0.00237363
0.0026135
0.00290282
0.00310931
0.00320411
0.0032214
0.00310529
0.0028812
0.00259002
0.0022718
0.00197456
0.00181964
0.00176322
0.0018157
0.00218141
0.00292669
0.00376503
0.00199379
0.002787
0.00217512
0.00197141
0.0019607
0.00206707
0.00211395
0.00212723
0.0020764
0.00197958
0.00187882
0.00178524
0.00173561
0.0017168
0.00173903
0.00184603
0.00205231
0.002462
0.0028925
0.00318738
0.00199704
0.00292709
0.0020459
0.00161837
0.00145513
0.00139108
0.00136287
0.00135385
0.00135646
0.00139108
0.00143789
0.00151348
0.00160887
0.00173395
0.00189161
0.00209678
0.00233319
0.00251772
0.00258554
0.00215888
0.00199558
0.00292185
0.00204882
0.00162646
0.00146698
0.00140588
0.00137925
0.00137079
0.00137284
0.0014032
0.00144725
0.00151787
0.00161024
0.00173076
0.00188519
0.00209028
0.00233107
0.00253071
0.0026086
0.00221242
0.00199029
0.00277459
0.0021653
0.00196163
0.00195201
0.00207207
0.00212832
0.00214777
0.00211426
0.00201502
0.00191302
0.00180851
0.00174707
0.00172187
0.001723
0.00182739
0.00201694
0.00243761
0.00289172
0.00323133
0.00197626
0.00257782
0.00235883
0.00234338
0.00257931
0.00287305
0.00309021
0.0031941
0.00321812
0.00311819
0.00290368
0.00261541
0.00229533
0.00198845
0.00182121
0.00175992
0.001805
0.00216679
0.00291635
0.00378267
0.00194344
0.00234329
0.00229888
0.00236215
0.00269105
0.00306405
0.00338595
0.00360236
0.00369039
0.00368408
0.00353198
0.00326539
0.00291077
0.00250476
0.00209505
0.0018693
0.00180719
0.00210552
0.0029005
0.0042198
0.00189812
0.00210655
0.00215175
0.0022885
0.00259869
0.00296281
0.00330458
0.00358181
0.00377321
0.00385085
0.00380143
0.00362054
0.00332796
0.00295285
0.00254487
0.00220798
0.00205904
0.00226054
0.00298518
0.00460875
0.00185833
0.00190983
0.00199897
0.00212989
0.00238025
0.00269892
0.00303845
0.00335463
0.00360167
0.00375543
0.00379947
0.00373875
0.00356252
0.00328659
0.00293321
0.00259498
0.00233327
0.00249832
0.00318293
0.0050221
0.0017793
0.00168932
0.00177753
0.00189907
0.00208833
0.00234461
0.00263794
0.00294049
0.00321978
0.00344741
0.00359671
0.00364619
0.00360736
0.00348331
0.00324096
0.00297225
0.00266802
0.00278797
0.0035048
0.00553592
0.00167411
0.00165403
0.00178265
0.00188635
0.00196532
0.00208872
0.00226415
0.00248634
0.00273641
0.00299368
0.00322701
0.00341509
0.00353726
0.0035545
0.00350262
0.00339382
0.00317805
0.00336091
0.00429202
0.00634918
0.00154226
0.00167282
0.00195768
0.00213272
0.00225016
0.00237198
0.00251923
0.00270013
0.00290685
0.00313817
0.00337456
0.00361688
0.00382432
0.00403601
0.00413567
0.004341
0.00452105
0.00505825
0.00643327
0.0078014
0.00396538
0.00577011
0.0068893
0.00744856
0.00781209
0.00807437
0.00828744
0.00845931
0.00860642
0.0087273
0.00883578
0.0089338
0.00903278
0.00913528
0.00927068
0.00939709
0.00954716
0.00975559
0.0104365
0.00951901
)
;

boundaryField
{
    movingWall
    {
        type            kqRWallFunction;
        value           nonuniform List<scalar> 
20
(
0.00396538
0.00577011
0.0068893
0.00744856
0.00781209
0.00807437
0.00828744
0.00845931
0.00860642
0.0087273
0.00883578
0.0089338
0.00903278
0.00913528
0.00927068
0.00939709
0.00954716
0.00975559
0.0104365
0.00951901
)
;
    }
    movingWallBottom
    {
        type            kqRWallFunction;
        value           nonuniform List<scalar> 
20
(
0.00396543
0.00576677
0.0068867
0.00744903
0.00781629
0.00808189
0.00829818
0.00847226
0.00862156
0.00874344
0.00885331
0.00895138
0.00905093
0.00915256
0.00928751
0.00941339
0.00956243
0.00977
0.0104486
0.0095275
)
;
    }
    fixedWalls
    {
        type            kqRWallFunction;
        value           nonuniform List<scalar> 
40
(
0.00396543
0.0015467
0.00168001
0.00178518
0.0018647
0.00190554
0.00195179
0.00198216
0.00199379
0.00199704
0.00199558
0.00199029
0.00197626
0.00194344
0.00189812
0.00185833
0.0017793
0.00167411
0.00154226
0.00396538
0.0095275
0.00780764
0.00635179
0.00553791
0.00502112
0.00460411
0.00420865
0.00376503
0.00318738
0.00215888
0.00221242
0.00323133
0.00378267
0.0042198
0.00460875
0.0050221
0.00553592
0.00634918
0.0078014
0.00951901
)
;
    }
    frontAndBack
    {
        type            empty;
    }
}


// ************************************************************************* //
