/*--------------------------------*- C++ -*----------------------------------*\
| =========                 |                                                 |
| \\      /  F ield         | OpenFOAM: The Open Source CFD Toolbox           |
|  \\    /   O peration     | Version:  4.1                                   |
|   \\  /    A nd           | Web:      www.OpenFOAM.org                      |
|    \\/     M anipulation  |                                                 |
\*---------------------------------------------------------------------------*/
FoamFile
{
    version     2.0;
    format      ascii;
    class       volScalarField;
    location    "7.5";
    object      nut;
}
// * * * * * * * * * * * * * * * * * * * * * * * * * * * * * * * * * * * * * //

dimensions      [0 2 -1 0 0 0 0];

internalField   nonuniform List<scalar> 
400
(
3.5353e-05
4.26334e-05
4.65896e-05
4.84544e-05
4.96346e-05
5.04709e-05
5.11419e-05
5.16755e-05
5.21289e-05
5.24961e-05
5.28249e-05
5.31167e-05
5.34112e-05
5.37102e-05
5.41047e-05
5.44702e-05
5.48996e-05
5.54923e-05
5.7387e-05
5.47992e-05
2.20786e-05
3.15819e-05
3.98463e-05
4.2659e-05
4.31913e-05
4.37298e-05
4.46412e-05
4.61049e-05
4.81033e-05
5.04711e-05
5.30347e-05
5.53094e-05
5.72469e-05
5.82837e-05
5.80175e-05
5.58159e-05
5.16422e-05
4.77714e-05
4.98467e-05
4.96072e-05
2.30102e-05
4.31352e-05
6.80976e-05
8.4283e-05
9.10224e-05
9.76579e-05
0.000102587
0.000107087
0.000111842
0.000115937
0.0001188
0.00011889
0.000117156
0.000109854
0.000102339
8.83236e-05
6.76761e-05
5.22155e-05
4.51004e-05
4.47438e-05
2.37194e-05
5.06454e-05
7.98233e-05
0.00010081
0.000119142
0.000137548
0.000151478
0.000162682
0.000170715
0.000175077
0.000175526
0.000171413
0.000164716
0.000153417
0.00013497
0.000111509
8.16717e-05
5.89715e-05
4.46824e-05
4.17789e-05
2.42418e-05
6.6781e-05
0.000100357
0.000117463
0.000134709
0.000150666
0.000166466
0.000180043
0.00018931
0.00019384
0.000193771
0.000189812
0.000180439
0.000165636
0.000144299
0.000117311
8.64824e-05
6.1613e-05
4.57734e-05
3.97818e-05
2.45056e-05
7.9473e-05
0.00010235
0.000116764
0.000132462
0.000148828
0.000163399
0.000174942
0.000184225
0.000188449
0.000187942
0.000181737
0.000170373
0.000153768
0.000130738
0.000104028
7.77156e-05
5.54139e-05
4.2371e-05
3.80939e-05
2.4801e-05
8.53897e-05
0.000101032
0.000109386
0.000125141
0.000140547
0.00015372
0.000162269
0.000165513
0.000165062
0.000160098
0.000150622
0.000136632
0.000117844
9.09515e-05
7.43016e-05
5.69361e-05
4.58171e-05
3.90104e-05
3.64211e-05
2.4993e-05
9.23199e-05
9.95289e-05
0.000101741
0.000109906
0.000118534
0.000124009
0.000126044
0.000125819
0.000119889
0.000110919
9.89589e-05
8.52089e-05
6.96913e-05
6.09072e-05
5.41994e-05
4.46325e-05
4.0027e-05
3.64653e-05
3.44481e-05
2.5066e-05
9.56733e-05
8.2593e-05
7.69945e-05
7.65277e-05
7.74515e-05
7.65415e-05
7.47623e-05
7.0333e-05
6.38216e-05
5.76972e-05
5.19454e-05
4.7613e-05
4.39076e-05
4.05408e-05
3.85013e-05
3.67497e-05
3.74038e-05
3.5576e-05
3.16952e-05
2.50863e-05
0.000100585
7.63543e-05
6.20705e-05
5.49458e-05
5.10556e-05
4.78772e-05
4.469e-05
4.19127e-05
4.03093e-05
3.88965e-05
3.81901e-05
3.76813e-05
3.74883e-05
3.74507e-05
3.77612e-05
3.77147e-05
3.56298e-05
3.43974e-05
2.60848e-05
2.50772e-05
0.000100412
7.6495e-05
6.24102e-05
5.54592e-05
5.17184e-05
4.85046e-05
4.53514e-05
4.25452e-05
4.07667e-05
3.92765e-05
3.84156e-05
3.7845e-05
3.75358e-05
3.74202e-05
3.77348e-05
3.77494e-05
3.57371e-05
3.45504e-05
2.64074e-05
2.5044e-05
9.53918e-05
8.24465e-05
7.68328e-05
7.64611e-05
7.82269e-05
7.7632e-05
7.59627e-05
7.25361e-05
6.57665e-05
5.97196e-05
5.34833e-05
4.89145e-05
4.50862e-05
4.09907e-05
3.89435e-05
3.65966e-05
3.73766e-05
3.5499e-05
3.19138e-05
2.49557e-05
9.16096e-05
9.8498e-05
0.000100994
0.000109347
0.000118419
0.000124695
0.000127235
0.0001274
0.000122291
0.000113824
0.000101949
8.80949e-05
7.19807e-05
6.2343e-05
5.54479e-05
4.52793e-05
4.03082e-05
3.65782e-05
3.4529e-05
2.47478e-05
8.46932e-05
0.000100314
0.000108182
0.000124079
0.000139713
0.000153329
0.000162517
0.000166227
0.000166395
0.000161885
0.000152736
0.000138987
0.000120278
9.31749e-05
7.56638e-05
5.77479e-05
4.61027e-05
3.90535e-05
3.64695e-05
2.44577e-05
7.8844e-05
0.000101461
0.000115538
0.000131298
0.000147907
0.000162846
0.000174745
0.000184212
0.000188831
0.000188698
0.00018279
0.000171631
0.000155095
0.000132136
0.000105377
7.87204e-05
5.5994e-05
4.25146e-05
3.81132e-05
2.42002e-05
6.60682e-05
9.94638e-05
0.000116311
0.000133531
0.000149515
0.000165455
0.000179239
0.000188835
0.000193652
0.000193814
0.000190051
0.000180794
0.000166137
0.000144773
0.000117693
8.66383e-05
6.15302e-05
4.57083e-05
3.97857e-05
2.36802e-05
5.01276e-05
7.90488e-05
9.96526e-05
0.000117721
0.000136183
0.000150259
0.000161643
0.000169862
0.000174414
0.00017506
0.000171137
0.000164347
0.000153311
0.000134771
0.000111434
8.15137e-05
5.87869e-05
4.45417e-05
4.17714e-05
2.29696e-05
4.28366e-05
6.75181e-05
8.38259e-05
9.04769e-05
9.70114e-05
0.000101928
0.000106325
0.000111005
0.000115065
0.000117949
0.000118096
0.000116404
0.000109272
0.000101747
8.77731e-05
6.72641e-05
5.18661e-05
4.49551e-05
4.47346e-05
2.20468e-05
3.14129e-05
3.95793e-05
4.2407e-05
4.29362e-05
4.3435e-05
4.4299e-05
4.56932e-05
4.76174e-05
4.99106e-05
5.24139e-05
5.46532e-05
5.65689e-05
5.76313e-05
5.73846e-05
5.52411e-05
5.11848e-05
4.74877e-05
4.97724e-05
4.95873e-05
3.53528e-05
4.26457e-05
4.65984e-05
4.84529e-05
4.96212e-05
5.04473e-05
5.11086e-05
5.16359e-05
5.2083e-05
5.24475e-05
5.27724e-05
5.30643e-05
5.33575e-05
5.36593e-05
5.40555e-05
5.44228e-05
5.48557e-05
5.54512e-05
5.73537e-05
5.47747e-05
)
;

boundaryField
{
    movingWall
    {
        type            nutkWallFunction;
        Cmu             0.09;
        kappa           0.41;
        E               9.8;
        value           nonuniform List<scalar> 
20
(
0
0
0
1.96361e-07
3.90122e-07
5.26703e-07
6.35786e-07
7.22607e-07
7.96115e-07
8.55975e-07
9.09287e-07
9.57139e-07
1.00515e-06
1.05455e-06
1.11932e-06
1.1793e-06
1.24991e-06
1.34692e-06
1.65577e-06
1.23671e-06
)
;
    }
    movingWallBottom
    {
        type            nutkWallFunction;
        Cmu             0.09;
        kappa           0.41;
        E               9.8;
        value           nonuniform List<scalar> 
20
(
0
0
0
1.96616e-07
3.92328e-07
5.3058e-07
6.41245e-07
7.29106e-07
8.0364e-07
8.6393e-07
9.17868e-07
9.65687e-07
1.01392e-06
1.06285e-06
1.12733e-06
1.187e-06
1.25705e-06
1.35358e-06
1.66114e-06
1.24069e-06
)
;
    }
    fixedWalls
    {
        type            nutkWallFunction;
        Cmu             0.09;
        kappa           0.41;
        E               9.8;
        value           nonuniform List<scalar> 
40
(
0
0
0
0
0
0
0
0
0
0
0
0
0
0
0
0
0
0
0
0
1.24069e-06
3.87782e-07
0
0
0
0
0
0
0
0
0
0
0
0
0
0
0
0
3.845e-07
1.23671e-06
)
;
    }
    frontAndBack
    {
        type            empty;
    }
}


// ************************************************************************* //
