/*--------------------------------*- C++ -*----------------------------------*\
| =========                 |                                                 |
| \\      /  F ield         | OpenFOAM: The Open Source CFD Toolbox           |
|  \\    /   O peration     | Version:  4.1                                   |
|   \\  /    A nd           | Web:      www.OpenFOAM.org                      |
|    \\/     M anipulation  |                                                 |
\*---------------------------------------------------------------------------*/
FoamFile
{
    version     2.0;
    format      ascii;
    class       volScalarField;
    location    "7.5";
    object      p;
}
// * * * * * * * * * * * * * * * * * * * * * * * * * * * * * * * * * * * * * //

dimensions      [0 2 -2 0 0 0 0];

internalField   nonuniform List<scalar> 
400
(
-4.35657e-08
0.000392523
-0.00358201
-0.00741533
-0.0107253
-0.013552
-0.0159377
-0.0178875
-0.0194201
-0.0205712
-0.0213818
-0.0218553
-0.0219441
-0.0215247
-0.0203873
-0.0181167
-0.0133523
-0.00496112
0.00811766
0.0286715
-0.00602487
-0.00554114
-0.00726746
-0.00976074
-0.0124751
-0.0150088
-0.0171777
-0.018936
-0.0203099
-0.021349
-0.0220987
-0.0225692
-0.0227337
-0.0224814
-0.0215647
-0.0196239
-0.016339
-0.0107013
-0.00255832
0.0162649
-0.00679175
-0.00724009
-0.00892299
-0.0112495
-0.0137289
-0.0159932
-0.0178914
-0.0194176
-0.0206209
-0.0215473
-0.0222295
-0.0226611
-0.0228273
-0.0226269
-0.0220438
-0.0206855
-0.0185225
-0.0148042
-0.0109877
-5.02562e-05
-0.00811484
-0.00901077
-0.0107559
-0.0130219
-0.0152773
-0.0172527
-0.01887
-0.0201547
-0.0211626
-0.0219392
-0.0225133
-0.0228903
-0.0230569
-0.0229451
-0.0224944
-0.0215103
-0.0200625
-0.0172487
-0.0158517
-0.00948935
-0.00854567
-0.00982665
-0.0116701
-0.0139283
-0.0160951
-0.0179514
-0.0194438
-0.0206039
-0.021494
-0.0221692
-0.022665
-0.0229928
-0.023139
-0.023052
-0.0226705
-0.0218842
-0.0208185
-0.01823
-0.0173066
-0.0123687
-0.00777127
-0.00948347
-0.0115391
-0.0139385
-0.0161914
-0.0180954
-0.0196068
-0.0207592
-0.0216177
-0.0222448
-0.0226862
-0.0229588
-0.0230507
-0.022913
-0.0224799
-0.0216737
-0.0204442
-0.0179394
-0.0157864
-0.0109531
-0.00584948
-0.00787889
-0.0102664
-0.012957
-0.0154926
-0.0176266
-0.0193015
-0.0205541
-0.0214611
-0.0220893
-0.0224913
-0.0226936
-0.0226824
-0.0224048
-0.0218066
-0.0207444
-0.0189049
-0.0157753
-0.0119013
-0.00676995
-0.00302804
-0.00538245
-0.00811952
-0.0111859
-0.0141229
-0.0166101
-0.0185578
-0.0199928
-0.0209988
-0.0216525
-0.0220168
-0.0221209
-0.0219542
-0.0214743
-0.020567
-0.0189328
-0.0160686
-0.0115857
-0.00584877
-0.000559607
-0.000116002
-0.00263646
-0.00562703
-0.00901623
-0.012335
-0.0152065
-0.0174868
-0.0191622
-0.0203124
-0.0210279
-0.0213767
-0.021388
-0.0210644
-0.0203309
-0.018936
-0.016412
-0.0121835
-0.0059596
0.00179566
0.006224
0.00179764
-0.000800004
-0.00392401
-0.00753473
-0.0111009
-0.0141722
-0.016625
-0.0184571
-0.0197346
-0.0205251
-0.0208797
-0.020824
-0.0203655
-0.0193767
-0.0175067
-0.0141503
-0.00870583
-0.00113629
0.00714104
0.0111859
0.00175769
-0.000833422
-0.0039536
-0.0075651
-0.0111371
-0.0142117
-0.0166668
-0.0185006
-0.019778
-0.0205684
-0.0209247
-0.0208752
-0.020419
-0.019433
-0.0175759
-0.0142437
-0.00883628
-0.00131274
0.00692792
0.0109801
-0.000201212
-0.00270552
-0.00568562
-0.00907533
-0.0124027
-0.0152853
-0.0175792
-0.019267
-0.0204273
-0.0211478
-0.0214965
-0.0215054
-0.0211793
-0.0204485
-0.0190703
-0.0165851
-0.0124235
-0.00629596
0.00133858
0.00578583
-0.00311462
-0.00544745
-0.00817226
-0.0112404
-0.0141908
-0.0166985
-0.0186673
-0.0201185
-0.0211367
-0.0217964
-0.0221605
-0.0222608
-0.0220885
-0.021603
-0.0206959
-0.0190827
-0.0162724
-0.0118757
-0.00626603
-0.00101114
-0.0059103
-0.00792162
-0.0103016
-0.0130004
-0.0155558
-0.0177143
-0.0194121
-0.020682
-0.0215993
-0.0222311
-0.0226308
-0.022825
-0.0228027
-0.0225154
-0.0219096
-0.0208516
-0.0190427
-0.0159632
-0.0121888
-0.00712082
-0.0077987
-0.00949612
-0.0115502
-0.0139634
-0.0162402
-0.0181716
-0.0197079
-0.0208791
-0.0217486
-0.0223787
-0.0228164
-0.0230794
-0.0231581
-0.0230062
-0.0225602
-0.0217454
-0.0205241
-0.0180301
-0.0159564
-0.0111737
-0.00854125
-0.00981102
-0.0116566
-0.0139294
-0.0161221
-0.0180083
-0.0195282
-0.0207095
-0.0216121
-0.0222912
-0.0227837
-0.0231018
-0.0232343
-0.0231302
-0.0227316
-0.0219306
-0.0208515
-0.0182603
-0.017393
-0.0124662
-0.00808804
-0.00897435
-0.0107201
-0.0130002
-0.0152815
-0.0172877
-0.0189341
-0.0202415
-0.0212639
-0.0220466
-0.0226192
-0.0229879
-0.023141
-0.0230099
-0.0225389
-0.0215327
-0.0200644
-0.0172438
-0.0158553
-0.00950418
-0.00675685
-0.00719237
-0.00887395
-0.0112113
-0.0137125
-0.0160056
-0.0179329
-0.0194836
-0.0207041
-0.0216391
-0.0223221
-0.0227466
-0.0228993
-0.0226802
-0.0220758
-0.0206914
-0.0185035
-0.0147697
-0.0109394
-3.55842e-06
-0.0059955
-0.0054951
-0.00721115
-0.00970903
-0.0124405
-0.0150001
-0.0171983
-0.0189838
-0.0203788
-0.0214305
-0.022184
-0.02265
-0.0228026
-0.0225312
-0.0215876
-0.0196171
-0.0163025
-0.0106403
-0.00247284
0.0163528
1.76769e-05
0.000424117
-0.00353279
-0.00736569
-0.0106902
-0.0135416
-0.015956
-0.0179331
-0.0194869
-0.0206508
-0.0214647
-0.0219329
-0.022008
-0.0215684
-0.0204043
-0.0181029
-0.0133036
-0.00488202
0.00822093
0.0287851
)
;

boundaryField
{
    movingWall
    {
        type            zeroGradient;
    }
    movingWallBottom
    {
        type            zeroGradient;
    }
    fixedWalls
    {
        type            zeroGradient;
    }
    frontAndBack
    {
        type            empty;
    }
}


// ************************************************************************* //
