/*--------------------------------*- C++ -*----------------------------------*\
| =========                 |                                                 |
| \\      /  F ield         | OpenFOAM: The Open Source CFD Toolbox           |
|  \\    /   O peration     | Version:  4.1                                   |
|   \\  /    A nd           | Web:      www.OpenFOAM.org                      |
|    \\/     M anipulation  |                                                 |
\*---------------------------------------------------------------------------*/
FoamFile
{
    version     2.0;
    format      ascii;
    class       surfaceScalarField;
    location    "7.5";
    object      phi;
}
// * * * * * * * * * * * * * * * * * * * * * * * * * * * * * * * * * * * * * //

dimensions      [0 3 -1 0 0 0 0];

internalField   nonuniform List<scalar> 
760
(
3.20799e-06
-3.20799e-06
5.41229e-06
-2.2043e-06
7.114e-06
-1.70171e-06
8.54537e-06
-1.43137e-06
9.74442e-06
-1.19905e-06
1.07304e-05
-9.85949e-07
1.15334e-05
-8.03045e-07
1.21918e-05
-6.58363e-07
1.27375e-05
-5.45674e-07
1.3193e-05
-4.55591e-07
1.35705e-05
-3.77426e-07
1.38705e-05
-3.00077e-07
1.40912e-05
-2.20633e-07
1.41974e-05
-1.06239e-07
1.41907e-05
6.68483e-09
1.38413e-05
3.49467e-07
1.31127e-05
7.28608e-07
1.12207e-05
1.89194e-06
7.72291e-06
3.49781e-06
7.72291e-06
1.01241e-06
-4.2204e-06
2.50263e-06
-3.69452e-06
3.88899e-06
-3.08806e-06
4.98537e-06
-2.52775e-06
5.81058e-06
-2.02427e-06
6.42282e-06
-1.59819e-06
6.87429e-06
-1.25451e-06
7.20284e-06
-9.86917e-07
7.44091e-06
-7.83735e-07
7.60891e-06
-6.23592e-07
7.72629e-06
-4.9481e-07
7.7952e-06
-3.68987e-07
7.81637e-06
-2.41807e-07
7.72458e-06
-1.44433e-08
7.5368e-06
1.94463e-07
7.18638e-06
6.99882e-07
6.52662e-06
1.38838e-06
5.34441e-06
3.07415e-06
2.92787e-06
5.91436e-06
1.06508e-05
9.33912e-07
-5.15431e-06
2.0743e-06
-4.83491e-06
3.02685e-06
-4.04061e-06
3.7387e-06
-3.2396e-06
4.2402e-06
-2.52577e-06
4.57446e-06
-1.93245e-06
4.78143e-06
-1.46148e-06
4.89614e-06
-1.10163e-06
4.94446e-06
-8.32052e-07
4.94708e-06
-6.26209e-07
4.91112e-06
-4.58857e-07
4.842e-06
-2.9986e-07
4.72458e-06
-1.24391e-07
4.58299e-06
1.27147e-07
4.30213e-06
4.75322e-07
3.91287e-06
1.08914e-06
3.24285e-06
2.0584e-06
2.40255e-06
3.91445e-06
1.08886e-06
7.22804e-06
1.17396e-05
6.94262e-07
-5.84857e-06
1.34693e-06
-5.48758e-06
1.91708e-06
-4.61076e-06
2.35447e-06
-3.67698e-06
2.65588e-06
-2.82718e-06
2.84396e-06
-2.12052e-06
2.94805e-06
-1.56558e-06
2.99282e-06
-1.1464e-06
2.99549e-06
-8.34723e-07
2.96756e-06
-5.98284e-07
2.91312e-06
-4.04413e-07
2.83158e-06
-2.18321e-07
2.7132e-06
-6.01144e-09
2.55204e-06
2.88308e-07
2.31866e-06
7.08703e-07
2.01532e-06
1.39248e-06
1.54493e-06
2.52879e-06
1.00975e-06
4.44963e-06
4.02013e-07
7.83578e-06
1.21417e-05
3.33852e-07
-6.18243e-06
5.23858e-07
-5.67759e-06
7.1743e-07
-4.80433e-06
8.83434e-07
-3.84299e-06
9.99875e-07
-2.94362e-06
1.07004e-06
-2.19069e-06
1.10461e-06
-1.60015e-06
1.11374e-06
-1.15553e-06
1.10433e-06
-8.25316e-07
1.08038e-06
-5.74331e-07
1.04222e-06
-3.66257e-07
9.8757e-07
-1.6367e-07
9.09804e-07
7.17542e-08
8.04748e-07
3.93365e-07
6.61128e-07
8.52322e-07
4.79529e-07
1.57408e-06
3.06144e-07
2.70217e-06
-9.99469e-08
4.85572e-06
-1.89713e-07
7.92554e-06
1.19519e-05
-2.24107e-07
-5.95832e-06
-4.25973e-07
-5.47572e-06
-5.68225e-07
-4.66208e-06
-6.68713e-07
-3.7425e-06
-7.46077e-07
-2.86626e-06
-8.04465e-07
-2.1323e-06
-8.46434e-07
-1.55818e-06
-8.75085e-07
-1.12688e-06
-8.94626e-07
-8.05774e-07
-9.08584e-07
-5.60373e-07
-9.21256e-07
-3.53586e-07
-9.36984e-07
-1.47941e-07
-9.60146e-07
9.49163e-08
-9.88123e-07
4.21341e-07
-1.01984e-06
8.84036e-07
-1.0429e-06
1.59714e-06
-1.06457e-06
2.72385e-06
-9.96124e-07
4.78727e-06
-8.76171e-07
7.80559e-06
1.10758e-05
-7.23316e-07
-5.235e-06
-1.41202e-06
-4.78701e-06
-1.93219e-06
-4.14191e-06
-2.32747e-06
-3.34722e-06
-2.61494e-06
-2.57879e-06
-2.81632e-06
-1.93092e-06
-2.95261e-06
-1.42189e-06
-3.03988e-06
-1.0396e-06
-3.09191e-06
-7.5375e-07
-3.11805e-06
-5.34228e-07
-3.12601e-06
-3.45634e-07
-3.12242e-06
-1.51522e-07
-3.11095e-06
8.34405e-08
-3.0771e-06
3.87491e-07
-3.01716e-06
8.24097e-07
-2.91486e-06
1.49484e-06
-2.76555e-06
2.57454e-06
-2.39536e-06
4.41709e-06
-1.75667e-06
7.1669e-06
9.3191e-06
-1.29839e-06
-3.93661e-06
-2.46993e-06
-3.61547e-06
-3.41337e-06
-3.19848e-06
-4.14228e-06
-2.61831e-06
-4.68089e-06
-2.04018e-06
-5.06542e-06
-1.54639e-06
-5.33697e-06
-1.15034e-06
-5.52814e-06
-8.48436e-07
-5.66253e-06
-6.19363e-07
-5.75685e-06
-4.39906e-07
-5.82237e-06
-2.80114e-07
-5.86683e-06
-1.07062e-07
-5.88139e-06
9.80056e-08
-5.84236e-06
3.48457e-07
-5.72149e-06
7.03232e-07
-5.47505e-06
1.2484e-06
-5.03151e-06
2.13099e-06
-4.16612e-06
3.5517e-06
-2.4921e-06
5.49287e-06
6.827e-06
-1.81705e-06
-2.11956e-06
-3.48806e-06
-1.94446e-06
-4.93777e-06
-1.74876e-06
-6.11284e-06
-1.44324e-06
-7.0155e-06
-1.13753e-06
-7.68499e-06
-8.76896e-07
-8.17259e-06
-6.62741e-07
-8.531e-06
-4.90029e-07
-8.79849e-06
-3.51874e-07
-8.99705e-06
-2.41344e-07
-9.1358e-06
-1.41364e-07
-9.21012e-06
-3.27384e-08
-9.19532e-06
8.31971e-08
-9.06566e-06
2.18799e-07
-8.77268e-06
4.10251e-07
-8.226e-06
7.0172e-07
-7.2787e-06
1.18369e-06
-5.68573e-06
1.95874e-06
-3.2806e-06
3.08774e-06
3.5464e-06
-2.16115e-06
4.15931e-08
-4.14634e-06
4.07234e-08
-5.9405e-06
4.53919e-08
-7.43397e-06
5.02308e-08
-8.62308e-06
5.15903e-08
-9.55134e-06
5.13594e-08
-1.026e-05
4.5891e-08
-1.07894e-05
3.93623e-08
-1.11717e-05
3.04772e-08
-1.14345e-05
2.13944e-08
-1.15882e-05
1.23623e-08
-1.16234e-05
2.51202e-09
-1.15343e-05
-5.91237e-09
-1.13013e-05
-1.42048e-08
-1.08679e-05
-2.32107e-08
-1.01318e-05
-3.43268e-08
-8.89877e-06
-4.93487e-08
-6.86853e-06
-7.14976e-08
-3.67943e-06
-1.01362e-07
-1.3303e-07
-2.14817e-06
2.18977e-06
-4.12309e-06
2.01564e-06
-5.90694e-06
1.82924e-06
-7.39108e-06
1.53436e-06
-8.57094e-06
1.23146e-06
-9.48737e-06
9.6779e-07
-1.01866e-05
7.4515e-07
-1.0709e-05
5.61687e-07
-1.10871e-05
4.08651e-07
-1.13481e-05
2.82328e-07
-1.15012e-05
1.65452e-07
-1.15369e-05
3.82301e-08
-1.14495e-05
-9.32755e-08
-1.1219e-05
-2.44718e-07
-1.07899e-05
-4.52351e-07
-1.00603e-05
-7.63932e-07
-8.83638e-06
-1.27322e-06
-6.8187e-06
-2.08917e-06
-3.64876e-06
-3.2713e-06
-3.78179e-06
-1.79544e-06
3.98521e-06
-3.44925e-06
3.66946e-06
-4.88324e-06
3.26323e-06
-6.04308e-06
2.6942e-06
-6.9314e-06
2.11978e-06
-7.58409e-06
1.62048e-06
-8.05378e-06
1.21484e-06
-8.39265e-06
9.00552e-07
-8.64127e-06
6.57277e-07
-8.82345e-06
4.64505e-07
-8.94986e-06
2.91868e-07
-9.01901e-06
1.07379e-07
-9.00493e-06
-1.07361e-07
-8.88024e-06
-3.69406e-07
-8.59772e-06
-7.34873e-07
-8.06829e-06
-1.29336e-06
-7.1472e-06
-2.19431e-06
-5.5895e-06
-3.64687e-06
-3.22671e-06
-5.63409e-06
-7.0085e-06
-1.27877e-06
5.26398e-06
-2.43731e-06
4.82799e-06
-3.37045e-06
4.19637e-06
-4.08835e-06
3.41209e-06
-4.61397e-06
2.64541e-06
-4.98441e-06
1.99092e-06
-5.24064e-06
1.47107e-06
-5.41591e-06
1.07582e-06
-5.53512e-06
7.76494e-07
-5.61501e-06
5.44395e-07
-5.66745e-06
3.44304e-07
-5.70118e-06
1.41106e-07
-5.70826e-06
-1.00284e-07
-5.66613e-06
-4.11528e-07
-5.54773e-06
-8.53279e-07
-5.31148e-06
-1.52961e-06
-4.89042e-06
-2.61538e-06
-4.06508e-06
-4.4722e-06
-2.44508e-06
-7.2541e-06
-9.45358e-06
-7.08356e-07
5.97234e-06
-1.38598e-06
5.50562e-06
-1.89651e-06
4.7069e-06
-2.28176e-06
3.79735e-06
-2.55843e-06
2.92208e-06
-2.74931e-06
2.1818e-06
-2.87566e-06
1.59741e-06
-2.95388e-06
1.15405e-06
-2.99828e-06
8.20892e-07
-3.01821e-06
5.64322e-07
-3.02148e-06
3.47572e-07
-3.01452e-06
1.34149e-07
-2.99973e-06
-1.15077e-07
-2.96495e-06
-4.46309e-07
-2.90508e-06
-9.13147e-07
-2.80466e-06
-1.63003e-06
-2.66115e-06
-2.75888e-06
-2.30477e-06
-4.82859e-06
-1.70809e-06
-7.85077e-06
-1.11617e-05
-2.11919e-07
6.18426e-06
-4.04079e-07
5.69778e-06
-5.37633e-07
4.84045e-06
-6.28199e-07
3.88791e-06
-6.95942e-07
2.98982e-06
-7.45957e-07
2.23181e-06
-7.81007e-07
1.63246e-06
-8.04332e-07
1.17737e-06
-8.20142e-07
8.36702e-07
-8.3189e-07
5.7607e-07
-8.43846e-07
3.59527e-07
-8.59874e-07
1.50177e-07
-8.84142e-07
-9.08083e-08
-9.14307e-07
-4.16146e-07
-9.49383e-07
-8.78072e-07
-9.77487e-07
-1.60192e-06
-1.00162e-06
-2.73475e-06
-9.46111e-07
-4.88409e-06
-8.45256e-07
-7.95163e-06
-1.20069e-05
3.42847e-07
5.84141e-06
5.41776e-07
5.49885e-06
7.44669e-07
4.63756e-06
9.20198e-07
3.71238e-06
1.04572e-06
2.8643e-06
1.12362e-06
2.15391e-06
1.16408e-06
1.59201e-06
1.1771e-06
1.16435e-06
1.16971e-06
8.44092e-07
1.14608e-06
5.99696e-07
1.10669e-06
3.98921e-07
1.04982e-06
2.07045e-07
9.68768e-07
-9.75606e-09
8.60059e-07
-3.07436e-07
7.12335e-07
-7.30349e-07
5.26744e-07
-1.41633e-06
3.43042e-07
-2.55105e-06
-7.49128e-08
-4.46614e-06
-1.60337e-07
-7.86621e-06
-1.21673e-05
6.98764e-07
5.14265e-06
1.35999e-06
4.83763e-06
1.93921e-06
4.05834e-06
2.38716e-06
3.26444e-06
2.69875e-06
2.5527e-06
2.8952e-06
1.95746e-06
3.00532e-06
1.48189e-06
3.05366e-06
1.11601e-06
3.05761e-06
8.40145e-07
3.02899e-06
6.28313e-07
2.97214e-06
4.55775e-07
2.88701e-06
2.92175e-07
2.76351e-06
1.13744e-07
2.59752e-06
-1.41444e-07
2.35793e-06
-4.90759e-07
2.04758e-06
-1.10598e-06
1.57007e-06
-2.07354e-06
1.03428e-06
-3.93035e-06
4.11747e-07
-7.24367e-06
-1.17555e-05
9.33365e-07
4.20928e-06
2.07924e-06
3.69175e-06
3.04154e-06
3.09604e-06
3.76426e-06
2.54172e-06
4.27646e-06
2.0405e-06
4.62019e-06
1.61373e-06
4.83435e-06
1.26774e-06
4.95364e-06
9.96722e-07
5.00372e-06
7.90057e-07
5.00569e-06
6.26344e-07
4.96681e-06
4.94654e-07
4.89322e-06
3.65765e-07
4.77045e-06
2.36521e-07
4.62325e-06
5.74898e-09
4.33438e-06
-2.01888e-07
3.93833e-06
-7.09929e-07
3.26205e-06
-1.39726e-06
2.41613e-06
-3.08443e-06
1.09542e-06
-5.92296e-06
-1.06601e-05
1.00691e-06
3.20237e-06
2.49793e-06
2.20073e-06
3.89088e-06
1.70309e-06
4.99632e-06
1.43628e-06
5.83155e-06
1.20527e-06
6.45312e-06
9.9216e-07
6.91221e-06
8.08655e-07
7.24629e-06
6.62642e-07
7.48749e-06
5.4885e-07
7.65657e-06
4.57262e-07
7.77293e-06
3.78299e-07
7.83927e-06
2.99421e-07
7.85615e-06
2.1964e-07
7.75804e-06
1.03861e-07
7.5648e-06
-8.64169e-09
7.20864e-06
-3.53771e-07
6.54323e-06
-7.31859e-07
5.35533e-06
-1.89653e-06
2.93387e-06
-3.5015e-06
-7.72622e-06
3.20237e-06
5.4031e-06
7.10619e-06
8.54247e-06
9.74774e-06
1.07399e-05
1.15486e-05
1.22112e-05
1.276e-05
1.32173e-05
1.35956e-05
1.3895e-05
1.41147e-05
1.42185e-05
1.42099e-05
1.38561e-05
1.31243e-05
1.12277e-05
7.72622e-06
)
;

boundaryField
{
    movingWall
    {
        type            calculated;
        value           uniform 0;
    }
    movingWallBottom
    {
        type            calculated;
        value           uniform 0;
    }
    fixedWalls
    {
        type            calculated;
        value           uniform 0;
    }
    frontAndBack
    {
        type            empty;
        value           nonuniform 0();
    }
}


// ************************************************************************* //
