/*--------------------------------*- C++ -*----------------------------------*\
| =========                 |                                                 |
| \\      /  F ield         | OpenFOAM: The Open Source CFD Toolbox           |
|  \\    /   O peration     | Version:  4.1                                   |
|   \\  /    A nd           | Web:      www.OpenFOAM.org                      |
|    \\/     M anipulation  |                                                 |
\*---------------------------------------------------------------------------*/
FoamFile
{
    version     2.0;
    format      ascii;
    class       volVectorField;
    location    "7.5";
    object      U;
}
// * * * * * * * * * * * * * * * * * * * * * * * * * * * * * * * * * * * * * //

dimensions      [0 1 -1 0 0 0 0];

internalField   nonuniform List<vector> 
400
(
(0.0636145 -0.0988385 0)
(0.0773847 -0.0639235 0)
(0.123401 -0.0434773 0)
(0.157885 -0.0339358 0)
(0.184366 -0.0280317 0)
(0.20589 -0.0236005 0)
(0.223384 -0.0199773 0)
(0.238173 -0.0170728 0)
(0.249922 -0.0146252 0)
(0.260056 -0.0126734 0)
(0.267708 -0.010849 0)
(0.274561 -0.00935485 0)
(0.278896 -0.00761724 0)
(0.282519 -0.00606649 0)
(0.282712 -0.00365135 0)
(0.279439 -0.00048585 0)
(0.269014 0.00138393 0)
(0.250239 0.0117142 0)
(0.188678 0.0225163 0)
(0.172474 0.117431 0)
(0.0154819 -0.0512778 0)
(0.0308566 -0.0419433 0)
(0.0637805 -0.0367426 0)
(0.0884485 -0.031587 0)
(0.108007 -0.0262375 0)
(0.12283 -0.021166 0)
(0.133649 -0.0167842 0)
(0.141574 -0.0133026 0)
(0.146998 -0.0107219 0)
(0.151047 -0.00865386 0)
(0.153404 -0.00703289 0)
(0.155421 -0.00519377 0)
(0.155542 -0.00354312 0)
(0.155591 5.66208e-06 0)
(0.151306 0.00305435 0)
(0.148101 0.011418 0)
(0.133683 0.0214271 0)
(0.12649 0.0501553 0)
(0.0650842 0.0939369 0)
(0.0899139 0.164374 0)
(0.0109872 -0.100751 0)
(0.0291852 -0.0928618 0)
(0.0509372 -0.07853 0)
(0.0675045 -0.0644974 0)
(0.0800014 -0.0511145 0)
(0.0887441 -0.0395677 0)
(0.0942096 -0.0303496 0)
(0.0973195 -0.0233132 0)
(0.0987698 -0.0180361 0)
(0.0991771 -0.0139864 0)
(0.0986754 -0.0107109 0)
(0.0976977 -0.00770007 0)
(0.0954898 -0.00447056 0)
(0.0934039 -7.4552e-05 0)
(0.0879754 0.00605153 0)
(0.0838913 0.0175555 0)
(0.0686619 0.035038 0)
(0.0675349 0.0724716 0)
(0.0127242 0.135558 0)
(0.0496754 0.222521 0)
(0.00701558 -0.113297 0)
(0.0203818 -0.10615 0)
(0.0317466 -0.0883864 0)
(0.0425345 -0.0699237 0)
(0.0504091 -0.0538609 0)
(0.0554932 -0.0407349 0)
(0.0583832 -0.0303937 0)
(0.0597592 -0.0225219 0)
(0.0601228 -0.0166283 0)
(0.0597998 -0.012144 0)
(0.0589222 -0.00848906 0)
(0.0575538 -0.0050209 0)
(0.0554647 -0.00110125 0)
(0.0528272 0.00441485 0)
(0.0484716 0.0121225 0)
(0.0445621 0.0250482 0)
(0.032465 0.0464455 0)
(0.0367987 0.0855248 0)
(-0.00675832 0.15475 0)
(0.032056 0.250331 0)
(0.00263897 -0.123181 0)
(0.00885474 -0.11483 0)
(0.0113759 -0.0967415 0)
(0.0156389 -0.0772631 0)
(0.0188684 -0.0591485 0)
(0.020929 -0.0440367 0)
(0.0220029 -0.0322328 0)
(0.0223983 -0.0233417 0)
(0.0223317 -0.0167417 0)
(0.0219536 -0.0117553 0)
(0.0212966 -0.0076768 0)
(0.0203482 -0.00373822 0)
(0.0189856 0.000824634 0)
(0.0171928 0.0070039 0)
(0.0145893 0.0158775 0)
(0.0123205 0.0300422 0)
(0.00412341 0.0528613 0)
(0.0121513 0.0939027 0)
(-0.0194191 0.162325 0)
(0.0174888 0.251229 0)
(-0.00537892 -0.123697 0)
(-0.00588681 -0.112983 0)
(-0.0111909 -0.09595 0)
(-0.0130575 -0.0769148 0)
(-0.0144309 -0.0589128 0)
(-0.0155708 -0.0438172 0)
(-0.0164706 -0.0319788 0)
(-0.0171589 -0.0230984 0)
(-0.0176406 -0.0164973 0)
(-0.0179986 -0.0114474 0)
(-0.0182918 -0.00721989 0)
(-0.0185995 -0.00305803 0)
(-0.0190477 0.00180394 0)
(-0.0196026 0.00833182 0)
(-0.0202499 0.0177477 0)
(-0.0208138 0.0322547 0)
(-0.023811 0.0549441 0)
(-0.0140571 0.0963149 0)
(-0.0325909 0.159515 0)
(0.00816786 0.237906 0)
(-0.0116247 -0.11173 0)
(-0.0216093 -0.103723 0)
(-0.0352185 -0.089141 0)
(-0.0440212 -0.0718402 0)
(-0.0501539 -0.055216 0)
(-0.0546744 -0.0412306 0)
(-0.0578156 -0.0302502 0)
(-0.0599954 -0.0219762 0)
(-0.0613561 -0.0158322 0)
(-0.0621313 -0.0111435 0)
(-0.0624971 -0.007138 0)
(-0.0626004 -0.0030911 0)
(-0.0625237 0.00176099 0)
(-0.0621778 0.00827777 0)
(-0.0616722 0.0171716 0)
(-0.0607949 0.030677 0)
(-0.058803 0.052977 0)
(-0.0484825 0.0937192 0)
(-0.0503593 0.154459 0)
(-0.00666991 0.211008 0)
(-0.0197611 -0.0911773 0)
(-0.0381827 -0.0842573 0)
(-0.0609499 -0.0739612 0)
(-0.0778062 -0.0602224 0)
(-0.0894675 -0.0468304 0)
(-0.0982034 -0.035358 0)
(-0.104274 -0.0262101 0)
(-0.108813 -0.0192991 0)
(-0.111961 -0.014036 0)
(-0.114248 -0.00990597 0)
(-0.115888 -0.00631127 0)
(-0.117076 -0.00256755 0)
(-0.117868 0.00200139 0)
(-0.118169 0.00797766 0)
(-0.117654 0.0166442 0)
(-0.114812 0.0301566 0)
(-0.107366 0.051771 0)
(-0.0907969 0.0872748 0)
(-0.0674457 0.136183 0)
(-0.0193428 0.171142 0)
(-0.0262234 -0.0592061 0)
(-0.0534838 -0.0551783 0)
(-0.0864847 -0.0491731 0)
(-0.113712 -0.0400544 0)
(-0.133103 -0.0310258 0)
(-0.148424 -0.0236818 0)
(-0.159065 -0.0178096 0)
(-0.16733 -0.0131711 0)
(-0.173314 -0.00953023 0)
(-0.178148 -0.00662042 0)
(-0.181516 -0.00394254 0)
(-0.183908 -0.00101197 0)
(-0.185219 0.00263616 0)
(-0.184961 0.0072899 0)
(-0.181906 0.0137506 0)
(-0.174157 0.0236757 0)
(-0.157904 0.0397659 0)
(-0.128888 0.064927 0)
(-0.0803819 0.098205 0)
(-0.0455228 0.113682 0)
(-0.0308715 -0.0204399 0)
(-0.063108 -0.018799 0)
(-0.102981 -0.0170347 0)
(-0.137971 -0.0143036 0)
(-0.162628 -0.0116244 0)
(-0.18332 -0.00883181 0)
(-0.198766 -0.00639111 0)
(-0.211048 -0.00448266 0)
(-0.219887 -0.00300291 0)
(-0.226466 -0.0018326 0)
(-0.230624 -0.000792502 0)
(-0.23284 0.000209726 0)
(-0.23344 0.0015893 0)
(-0.231614 0.00318807 0)
(-0.226318 0.00561206 0)
(-0.214218 0.00929733 0)
(-0.191532 0.0154313 0)
(-0.153855 0.0248726 0)
(-0.0992925 0.0369229 0)
(-0.0496879 0.0410215 0)
(-0.0306743 0.0219599 0)
(-0.0627501 0.0203208 0)
(-0.102397 0.0187377 0)
(-0.137204 0.0161843 0)
(-0.161726 0.0135351 0)
(-0.182126 0.010735 0)
(-0.197395 0.00809632 0)
(-0.2095 0.00594976 0)
(-0.218208 0.00414967 0)
(-0.224748 0.00263925 0)
(-0.228871 0.00124152 0)
(-0.231196 -0.000147091 0)
(-0.231665 -0.00189324 0)
(-0.22995 -0.00386628 0)
(-0.224663 -0.00670763 0)
(-0.212729 -0.0109161 0)
(-0.190204 -0.0177552 0)
(-0.152805 -0.0282068 0)
(-0.0985085 -0.0415173 0)
(-0.048765 -0.0469632 0)
(-0.0259168 0.0603977 0)
(-0.0528521 0.0564387 0)
(-0.0855335 0.0506264 0)
(-0.112496 0.0417515 0)
(-0.131564 0.0328205 0)
(-0.146597 0.0253559 0)
(-0.15688 0.0193067 0)
(-0.164773 0.0144457 0)
(-0.170363 0.0105072 0)
(-0.174819 0.00730627 0)
(-0.177885 0.00433848 0)
(-0.180085 0.00112214 0)
(-0.181335 -0.00278215 0)
(-0.181117 -0.00773408 0)
(-0.17822 -0.0144651 0)
(-0.170754 -0.024727 0)
(-0.154971 -0.0412743 0)
(-0.126616 -0.0671595 0)
(-0.0792767 -0.101422 0)
(-0.0439618 -0.11757 0)
(-0.0194604 0.0919629 0)
(-0.0376124 0.0851983 0)
(-0.0601905 0.0751374 0)
(-0.0768675 0.0616013 0)
(-0.0882733 0.0482505 0)
(-0.0967536 0.0366698 0)
(-0.102508 0.0273252 0)
(-0.106724 0.020161 0)
(-0.109574 0.0146412 0)
(-0.111543 0.010266 0)
(-0.11291 0.00642922 0)
(-0.113846 0.00248998 0)
(-0.114455 -0.00224331 0)
(-0.114603 -0.00834847 0)
(-0.114038 -0.0170994 0)
(-0.111349 -0.0307298 0)
(-0.104246 -0.0525416 0)
(-0.0882503 -0.088523 0)
(-0.066453 -0.138282 0)
(-0.0184477 -0.174275 0)
(-0.0113998 0.11219 0)
(-0.0211597 0.104447 0)
(-0.0345999 0.0901467 0)
(-0.0432321 0.0730371 0)
(-0.0491463 0.0564325 0)
(-0.0534488 0.0423144 0)
(-0.0563769 0.0311216 0)
(-0.0583595 0.0225958 0)
(-0.0595518 0.0161923 0)
(-0.0601889 0.011262 0)
(-0.0604447 0.00704218 0)
(-0.0604622 0.00282402 0)
(-0.0603231 -0.00216178 0)
(-0.0599229 -0.00878529 0)
(-0.0593822 -0.0177811 0)
(-0.0585015 -0.031344 0)
(-0.0566703 -0.053605 0)
(-0.0463569 -0.0943419 0)
(-0.0491874 -0.155283 0)
(-0.00607843 -0.212917 0)
(-0.0051714 0.123874 0)
(-0.0055253 0.113492 0)
(-0.0106642 0.096756 0)
(-0.0123531 0.0779132 0)
(-0.0135314 0.0599341 0)
(-0.0144866 0.0447236 0)
(-0.0152273 0.0326899 0)
(-0.0157908 0.0235781 0)
(-0.0161783 0.016749 0)
(-0.0164784 0.0114918 0)
(-0.016742 0.00708053 0)
(-0.0170451 0.00277117 0)
(-0.0175078 -0.00220219 0)
(-0.0180924 -0.00881905 0)
(-0.0187918 -0.0183041 0)
(-0.0193954 -0.0328969 0)
(-0.0225746 -0.0557069 0)
(-0.0127823 -0.0971134 0)
(-0.0318336 -0.160338 0)
(0.00846625 -0.239265 0)
(0.00274973 0.123158 0)
(0.00911838 0.115172 0)
(0.0118172 0.0973984 0)
(0.0162604 0.0780941 0)
(0.0196834 0.0600047 0)
(0.0219221 0.0447953 0)
(0.0231395 0.0328262 0)
(0.0236354 0.0237424 0)
(0.0236305 0.0169495 0)
(0.0232743 0.0117835 0)
(0.022607 0.00754871 0)
(0.0216241 0.00348319 0)
(0.0202021 -0.00117378 0)
(0.0183449 -0.00742971 0)
(0.0156562 -0.016358 0)
(0.013302 -0.0305561 0)
(0.00494631 -0.053378 0)
(0.0130519 -0.0943038 0)
(-0.0189183 -0.16277 0)
(0.0177317 -0.252022 0)
(0.00713464 0.113079 0)
(0.0205685 0.106279 0)
(0.0320834 0.0888459 0)
(0.0430589 0.0705387 0)
(0.051152 0.0545039 0)
(0.056433 0.0413195 0)
(0.0594757 0.0308639 0)
(0.060952 0.0228478 0)
(0.0613644 0.0168042 0)
(0.0610463 0.0121783 0)
(0.0601352 0.00839962 0)
(0.0587077 0.004822 0)
(0.0565249 0.000823015 0)
(0.0537964 -0.00475236 0)
(0.0493175 -0.0125011 0)
(0.0453018 -0.0254636 0)
(0.0330356 -0.0468417 0)
(0.0372857 -0.0859172 0)
(-0.006389 -0.155315 0)
(0.0321773 -0.250718 0)
(0.0110118 0.100512 0)
(0.0291981 0.0928716 0)
(0.051115 0.078794 0)
(0.0678979 0.0648924 0)
(0.0806009 0.0515763 0)
(0.0895553 0.0400115 0)
(0.0951985 0.0307213 0)
(0.0984348 0.0235842 0)
(0.0999502 0.0182032 0)
(0.100371 0.0140543 0)
(0.0998272 0.0106933 0)
(0.0987797 0.00760444 0)
(0.0964594 0.0043189 0)
(0.0942813 -0.000122357 0)
(0.0886903 -0.0062851 0)
(0.0845004 -0.0178232 0)
(0.0690863 -0.0352842 0)
(0.0678792 -0.072733 0)
(0.0128987 -0.135752 0)
(0.049808 -0.222776 0)
(0.0153977 0.0510628 0)
(0.0307419 0.0418133 0)
(0.0637315 0.0368061 0)
(0.0885631 0.031776 0)
(0.108304 0.0264599 0)
(0.123325 0.0213817 0)
(0.134315 0.0169707 0)
(0.14239 0.013441 0)
(0.147901 0.0108138 0)
(0.152009 0.00869543 0)
(0.154352 0.00703914 0)
(0.156345 0.00515538 0)
(0.156377 0.00348412 0)
(0.156336 -0.000106244 0)
(0.151908 -0.00314016 0)
(0.148615 -0.0115533 0)
(0.134044 -0.0215332 0)
(0.126761 -0.0502729 0)
(0.0652573 -0.094065 0)
(0.0900061 -0.164487 0)
(0.0635225 0.0988017 0)
(0.0772668 0.0638758 0)
(0.123208 0.043445 0)
(0.157753 0.033929 0)
(0.184331 0.0280451 0)
(0.20599 0.0236214 0)
(0.223599 0.0200066 0)
(0.238511 0.0170993 0)
(0.250333 0.0146574 0)
(0.260538 0.0126968 0)
(0.268205 0.0108793 0)
(0.275075 0.00936791 0)
(0.279375 0.00763859 0)
(0.282974 0.00605819 0)
(0.283094 0.00366076 0)
(0.279769 0.000471741 0)
(0.269269 -0.00138014 0)
(0.250431 -0.0117436 0)
(0.188775 -0.0225223 0)
(0.172524 -0.117423 0)
)
;

boundaryField
{
    movingWall
    {
        type            fixedValue;
        value           uniform (1 0 0);
    }
    movingWallBottom
    {
        type            fixedValue;
        value           uniform (1 0 0);
    }
    fixedWalls
    {
        type            noSlip;
    }
    frontAndBack
    {
        type            empty;
    }
}


// ************************************************************************* //
