/*--------------------------------*- C++ -*----------------------------------*\
| =========                 |                                                 |
| \\      /  F ield         | OpenFOAM: The Open Source CFD Toolbox           |
|  \\    /   O peration     | Version:  4.1                                   |
|   \\  /    A nd           | Web:      www.OpenFOAM.org                      |
|    \\/     M anipulation  |                                                 |
\*---------------------------------------------------------------------------*/
FoamFile
{
    version     2.0;
    format      ascii;
    class       volScalarField;
    location    "9.5";
    object      epsilon;
}
// * * * * * * * * * * * * * * * * * * * * * * * * * * * * * * * * * * * * * //

dimensions      [0 2 -3 0 0 0 0];

internalField   nonuniform List<scalar> 
400
(
0.0399485
0.0700043
0.091352
0.102682
0.110359
0.116051
0.120779
0.124637
0.127989
0.130745
0.13325
0.135489
0.137778
0.140112
0.143243
0.146176
0.149671
0.154577
0.170984
0.148933
0.00972839
0.00799466
0.00866018
0.00957977
0.01054
0.0115948
0.0128504
0.0143373
0.0159732
0.0177789
0.0195959
0.0215909
0.0233244
0.0254876
0.0268483
0.0306678
0.0358957
0.0484443
0.0748242
0.110499
0.0110025
0.00573027
0.00420538
0.00378438
0.00380742
0.00401915
0.00451148
0.00523309
0.00608625
0.00703465
0.00797496
0.00891141
0.00968549
0.0103982
0.0108207
0.0117352
0.0134213
0.0195014
0.0368364
0.0811227
0.012033
0.0050989
0.00357409
0.00323572
0.00331773
0.00362781
0.00417743
0.00483747
0.0055249
0.00616556
0.00667619
0.00700163
0.00711239
0.0070907
0.00695116
0.00705044
0.00775496
0.0117859
0.0247279
0.0660578
0.0128189
0.00494235
0.0036113
0.00351441
0.00383417
0.00441112
0.0050608
0.00569934
0.00623232
0.00659705
0.00672945
0.006626
0.00629574
0.00580528
0.00527882
0.0050583
0.00555438
0.00904481
0.0199904
0.0570278
0.0132165
0.0050529
0.00412072
0.00410542
0.00467445
0.00539879
0.00610436
0.0066837
0.00702396
0.00712373
0.0069274
0.00646343
0.00578957
0.00501716
0.00435419
0.00410481
0.00479257
0.00819154
0.0189662
0.05006
0.013669
0.00582237
0.00476829
0.00468271
0.00532546
0.00612814
0.0068144
0.00727044
0.00745592
0.00740592
0.00697931
0.00630701
0.00549223
0.00468825
0.00423209
0.00414744
0.00509632
0.0087144
0.0195461
0.0437192
0.0139469
0.00649956
0.00509133
0.00493906
0.00555905
0.00635884
0.00696845
0.00727302
0.00736091
0.00716399
0.0066579
0.0060267
0.0053862
0.00498603
0.00485215
0.00513786
0.006639
0.0107241
0.0211925
0.0369631
0.0140396
0.00720641
0.00508672
0.00449459
0.00447942
0.0049239
0.00520434
0.00538984
0.00545584
0.00546515
0.0054515
0.00548804
0.00567778
0.00604791
0.00674483
0.00801849
0.0103973
0.014658
0.0211739
0.028656
0.0140543
0.00755303
0.00484796
0.0037393
0.00342289
0.00337015
0.00345914
0.00366192
0.00392915
0.00430293
0.00477486
0.00539506
0.00618793
0.00723252
0.00862392
0.0105105
0.0130248
0.0160013
0.0174455
0.0159066
0.0140079
0.00752433
0.00484188
0.00374943
0.00344333
0.00339715
0.00350312
0.00370774
0.00397518
0.00433572
0.00479317
0.00538809
0.00615802
0.00716995
0.00853614
0.0104123
0.0129647
0.0161889
0.0178447
0.0169338
0.0139359
0.00712368
0.0049962
0.0043972
0.00437714
0.00483189
0.00514532
0.00536894
0.00545778
0.00547243
0.00543871
0.00542832
0.00553461
0.00582646
0.00640808
0.00758888
0.00986479
0.0141858
0.0212258
0.0296878
0.0137924
0.0063954
0.00496315
0.00477447
0.00534988
0.0061346
0.00673975
0.00705516
0.00715106
0.00698878
0.00650628
0.00588906
0.00524532
0.00481292
0.00465949
0.00489373
0.00632931
0.0103298
0.0208299
0.0374173
0.0134672
0.00571316
0.00462901
0.00452803
0.00512977
0.00590773
0.00656934
0.00700627
0.00718173
0.0071421
0.00673957
0.00609793
0.00531728
0.00454307
0.00410209
0.00402425
0.00494864
0.00849779
0.0192585
0.0440271
0.0130502
0.00495064
0.00400702
0.00397685
0.0045156
0.00520816
0.00587843
0.00642828
0.00676243
0.00686612
0.00668987
0.00625889
0.00562654
0.00489602
0.00426298
0.00402347
0.00470232
0.00804845
0.0187174
0.0501973
0.0126735
0.0048765
0.00352526
0.0034175
0.0037163
0.00426544
0.00488071
0.00548707
0.00600037
0.00635894
0.00650086
0.00641848
0.00612481
0.00567124
0.00518058
0.00498867
0.0054885
0.00893575
0.019773
0.0570643
0.0119182
0.00504043
0.00352026
0.00317257
0.00324092
0.00352143
0.00403454
0.00465721
0.0053132
0.00593349
0.00643662
0.0067707
0.00690407
0.00690533
0.00680331
0.00692333
0.00764172
0.0116587
0.0246372
0.0659991
0.0108981
0.0056776
0.00415887
0.00372972
0.00374127
0.00392656
0.00437458
0.00505167
0.00585832
0.00676732
0.00767648
0.00859815
0.00936932
0.0100964
0.01054
0.0114911
0.0131983
0.0192882
0.0366816
0.0810347
0.00965604
0.00794637
0.00860452
0.00949581
0.0104194
0.0114285
0.0126232
0.0140483
0.0156146
0.0173594
0.019111
0.0210639
0.022757
0.0249074
0.0262881
0.0301699
0.0354413
0.0480632
0.0745964
0.11024
0.039936
0.0700714
0.091384
0.102573
0.110097
0.11566
0.120264
0.124041
0.127313
0.130033
0.132487
0.134723
0.136987
0.139349
0.142495
0.145445
0.148975
0.153907
0.170395
0.148543
)
;

boundaryField
{
    movingWall
    {
        Cmu             0.09;
        kappa           0.41;
        E               9.8;
        type            epsilonWallFunction;
        value           nonuniform List<scalar> 
20
(
0.039936
0.0700714
0.091384
0.102573
0.110097
0.11566
0.120264
0.124041
0.127313
0.130033
0.132487
0.134723
0.136987
0.139349
0.142495
0.145445
0.148975
0.153907
0.170395
0.148543
)
;
    }
    movingWallBottom
    {
        Cmu             0.09;
        kappa           0.41;
        E               9.8;
        type            epsilonWallFunction;
        value           nonuniform List<scalar> 
20
(
0.0399485
0.0700043
0.091352
0.102682
0.110359
0.116051
0.120779
0.124637
0.127989
0.130745
0.13325
0.135489
0.137778
0.140112
0.143243
0.146176
0.149671
0.154577
0.170984
0.148933
)
;
    }
    fixedWalls
    {
        Cmu             0.09;
        kappa           0.41;
        E               9.8;
        type            epsilonWallFunction;
        value           nonuniform List<scalar> 
40
(
0.0399485
0.00972839
0.0110025
0.012033
0.0128189
0.0132165
0.013669
0.0139469
0.0140396
0.0140543
0.0140079
0.0139359
0.0137924
0.0134672
0.0130502
0.0126735
0.0119182
0.0108981
0.00965604
0.039936
0.148933
0.110499
0.0811227
0.0660578
0.0570278
0.05006
0.0437192
0.0369631
0.028656
0.0159066
0.0169338
0.0296878
0.0374173
0.0440271
0.0501973
0.0570643
0.0659991
0.0810347
0.11024
0.148543
)
;
    }
    frontAndBack
    {
        type            empty;
    }
}


// ************************************************************************* //
