/*--------------------------------*- C++ -*----------------------------------*\
| =========                 |                                                 |
| \\      /  F ield         | OpenFOAM: The Open Source CFD Toolbox           |
|  \\    /   O peration     | Version:  4.1                                   |
|   \\  /    A nd           | Web:      www.OpenFOAM.org                      |
|    \\/     M anipulation  |                                                 |
\*---------------------------------------------------------------------------*/
FoamFile
{
    version     2.0;
    format      ascii;
    class       volScalarField;
    location    "9.5";
    object      k;
}
// * * * * * * * * * * * * * * * * * * * * * * * * * * * * * * * * * * * * * //

dimensions      [0 2 -2 0 0 0 0];

internalField   nonuniform List<scalar> 
400
(
0.00396
0.00575585
0.00687341
0.00743056
0.00779646
0.00806233
0.00827981
0.00845522
0.00860614
0.00872924
0.00884043
0.00893917
0.00903957
0.00914136
0.00927704
0.00940328
0.00955256
0.00976016
0.0104391
0.00952114
0.00154428
0.00166917
0.00194596
0.00211589
0.00223086
0.00235266
0.00250179
0.00268544
0.00289559
0.00312991
0.00336938
0.00361316
0.00382206
0.00403341
0.00413202
0.00433514
0.00451483
0.00505288
0.00643174
0.00780311
0.00167635
0.00164894
0.001772
0.00186914
0.00194562
0.00206989
0.00224839
0.0024744
0.00272789
0.00298692
0.00322026
0.0034059
0.00352556
0.00353684
0.00348251
0.0033689
0.00315389
0.00334112
0.00428546
0.00635023
0.00177945
0.00168365
0.00176781
0.00188825
0.00207851
0.00233721
0.00263339
0.00293784
0.00321686
0.00344161
0.0035857
0.00362782
0.00358445
0.00345261
0.00320532
0.00293177
0.0026302
0.00275454
0.00348838
0.00553746
0.00185611
0.00190486
0.00199302
0.00212613
0.00237855
0.00269879
0.00303942
0.00335523
0.00359812
0.00374571
0.00378194
0.00371313
0.00352765
0.0032439
0.00288532
0.00254467
0.00228873
0.00246802
0.00317571
0.00502056
0.0018943
0.00210198
0.00214949
0.00229213
0.00260624
0.00296942
0.00330834
0.0035815
0.00376705
0.00383585
0.00377604
0.0035851
0.00328329
0.00290142
0.00248867
0.00215192
0.0020064
0.00221704
0.00297076
0.00460279
0.0019373
0.00233835
0.00229768
0.00236893
0.00270308
0.00307336
0.00338892
0.00359533
0.00367597
0.00365587
0.00349253
0.00321737
0.00285613
0.00244666
0.0020374
0.00182804
0.00177429
0.00209117
0.00290398
0.00420541
0.00196346
0.00256815
0.00235774
0.00234809
0.00258994
0.00287495
0.00307429
0.00316396
0.00317811
0.00305483
0.00282826
0.00253841
0.00222444
0.00193539
0.00178929
0.0017365
0.00179389
0.00216959
0.00292612
0.00376014
0.00197215
0.00274969
0.0021415
0.0019454
0.00193713
0.00203991
0.00208367
0.00209496
0.00203928
0.00194453
0.00184677
0.00175911
0.00171576
0.00170019
0.00173193
0.00183926
0.00205749
0.0024638
0.00289124
0.00317319
0.00197352
0.0028839
0.00200462
0.00158856
0.00143172
0.00137104
0.00134516
0.00133765
0.00134527
0.00138114
0.00143181
0.00150873
0.00160688
0.0017334
0.00189388
0.00209964
0.00233558
0.00251622
0.00258122
0.00214322
0.00196914
0.00287141
0.00199992
0.00159093
0.00144017
0.00138471
0.0013621
0.0013561
0.00136542
0.00139511
0.0014428
0.00151202
0.00160607
0.00172533
0.00188109
0.00208715
0.00233109
0.00253825
0.00262071
0.00223468
0.00196238
0.00271756
0.00210027
0.00190029
0.00189212
0.00201485
0.00207312
0.0020946
0.00207139
0.00197637
0.00188212
0.00177994
0.00172072
0.00169605
0.00169598
0.00179836
0.00199129
0.00241725
0.00288872
0.00324905
0.00194887
0.00252267
0.00229059
0.00227323
0.00250622
0.00279568
0.00300897
0.00311153
0.00313592
0.00303905
0.00283013
0.00254956
0.00223788
0.00193891
0.00177715
0.0017183
0.00176583
0.00213633
0.00290548
0.00379095
0.0019181
0.00229117
0.0022326
0.00228901
0.00261299
0.00297873
0.00329344
0.00350453
0.00359023
0.00358392
0.00343495
0.00317435
0.00282778
0.00243077
0.0020305
0.00181566
0.00175899
0.00206856
0.00288143
0.00422517
0.00187831
0.00205814
0.00208939
0.00221747
0.00252183
0.00287793
0.00321108
0.00348074
0.00366661
0.00374237
0.00369414
0.00351781
0.00323253
0.00286635
0.00246803
0.00214075
0.00199736
0.00220537
0.00295216
0.00461123
0.00184199
0.00186932
0.0019415
0.00206384
0.00230707
0.00261699
0.00294727
0.0032552
0.00349639
0.00364667
0.00369004
0.00363156
0.00346045
0.00319256
0.00284775
0.00251856
0.00226565
0.00243893
0.00314798
0.00502271
0.00176807
0.00165455
0.00173103
0.00183893
0.00201892
0.00226711
0.00255227
0.00284695
0.00311936
0.00334184
0.00348822
0.00353781
0.00350112
0.003383
0.00314741
0.00288629
0.00259232
0.00271912
0.00346491
0.00553417
0.00166569
0.00162789
0.00174211
0.00183827
0.00190853
0.00202271
0.00218879
0.0024012
0.00264189
0.00289136
0.00311898
0.00330431
0.00342632
0.00344817
0.00339983
0.00329752
0.00309637
0.00329047
0.00425866
0.00634562
0.0015366
0.00165429
0.00192377
0.0020898
0.00219963
0.002314
0.00245392
0.00262714
0.00282574
0.00304921
0.00327813
0.00351512
0.00371837
0.00393006
0.00403189
0.00424435
0.00443683
0.00499641
0.00641076
0.00779086
0.00395916
0.00575952
0.00687499
0.00742526
0.00778409
0.00804411
0.00825621
0.00842817
0.00857571
0.00869746
0.00880653
0.00890534
0.00900485
0.00910805
0.00924464
0.00937181
0.00952284
0.00973188
0.0104151
0.00950445
)
;

boundaryField
{
    movingWall
    {
        type            kqRWallFunction;
        value           nonuniform List<scalar> 
20
(
0.00395916
0.00575952
0.00687499
0.00742526
0.00778409
0.00804411
0.00825621
0.00842817
0.00857571
0.00869746
0.00880653
0.00890534
0.00900485
0.00910805
0.00924464
0.00937181
0.00952284
0.00973188
0.0104151
0.00950445
)
;
    }
    movingWallBottom
    {
        type            kqRWallFunction;
        value           nonuniform List<scalar> 
20
(
0.00396
0.00575585
0.00687341
0.00743056
0.00779646
0.00806233
0.00827981
0.00845522
0.00860614
0.00872924
0.00884043
0.00893917
0.00903957
0.00914136
0.00927704
0.00940328
0.00955256
0.00976016
0.0104391
0.00952114
)
;
    }
    fixedWalls
    {
        type            kqRWallFunction;
        value           nonuniform List<scalar> 
40
(
0.00396
0.00154428
0.00167635
0.00177945
0.00185611
0.0018943
0.0019373
0.00196346
0.00197215
0.00197352
0.00196914
0.00196238
0.00194887
0.0019181
0.00187831
0.00184199
0.00176807
0.00166569
0.0015366
0.00395916
0.00952114
0.00780311
0.00635023
0.00553746
0.00502056
0.00460279
0.00420541
0.00376014
0.00317319
0.00214322
0.00223468
0.00324905
0.00379095
0.00422517
0.00461123
0.00502271
0.00553417
0.00634562
0.00779086
0.00950445
)
;
    }
    frontAndBack
    {
        type            empty;
    }
}


// ************************************************************************* //
