/*--------------------------------*- C++ -*----------------------------------*\
| =========                 |                                                 |
| \\      /  F ield         | OpenFOAM: The Open Source CFD Toolbox           |
|  \\    /   O peration     | Version:  4.1                                   |
|   \\  /    A nd           | Web:      www.OpenFOAM.org                      |
|    \\/     M anipulation  |                                                 |
\*---------------------------------------------------------------------------*/
FoamFile
{
    version     2.0;
    format      ascii;
    class       volScalarField;
    location    "9.5";
    object      nut;
}
// * * * * * * * * * * * * * * * * * * * * * * * * * * * * * * * * * * * * * //

dimensions      [0 2 -1 0 0 0 0];

internalField   nonuniform List<scalar> 
400
(
3.53291e-05
4.25929e-05
4.65445e-05
4.83942e-05
4.95714e-05
5.04096e-05
5.1085e-05
5.16233e-05
5.2082e-05
5.24532e-05
5.27862e-05
5.30802e-05
5.33775e-05
5.36771e-05
5.4074e-05
5.44407e-05
5.48712e-05
5.54642e-05
5.7361e-05
5.47808e-05
2.20626e-05
3.13648e-05
3.93536e-05
4.20605e-05
4.24958e-05
4.29635e-05
4.38357e-05
4.52695e-05
4.72418e-05
4.95908e-05
5.21409e-05
5.44185e-05
5.63673e-05
5.74458e-05
5.72335e-05
5.51526e-05
5.11073e-05
4.74326e-05
4.97574e-05
4.95928e-05
2.29868e-05
4.27049e-05
6.7199e-05
8.30868e-05
8.94803e-05
9.59407e-05
0.000100848
0.000105299
0.000110039
0.000114143
0.00011703
0.000117155
0.000115499
0.000108272
0.000100872
8.70418e-05
6.67024e-05
5.15183e-05
4.48705e-05
4.47382e-05
2.36831e-05
5.00346e-05
7.86951e-05
9.91722e-05
0.000117194
0.000135517
0.000149405
0.000160576
0.000168571
0.0001729
0.000173326
0.000169175
0.000162582
0.000151303
0.000133023
0.00010972
8.0286e-05
5.79401e-05
4.42899e-05
4.17773e-05
2.4188e-05
6.60748e-05
9.89923e-05
0.000115763
0.000132799
0.000148605
0.000164288
0.000177771
0.000186958
0.000191409
0.000191289
0.000187272
0.000177897
0.000163137
0.000141936
0.000115213
8.48785e-05
6.06095e-05
4.54048e-05
3.97796e-05
2.44356e-05
7.86969e-05
0.000100911
0.000115177
0.00013078
0.000146991
0.00016137
0.000172725
0.000181829
0.000185891
0.000185245
0.00017897
0.000167577
0.00015101
0.000128018
0.000101532
7.55977e-05
5.40036e-05
4.18792e-05
3.80885e-05
2.47114e-05
8.45204e-05
9.96457e-05
0.000107858
0.000123482
0.000138721
0.000151683
0.000160014
0.000163112
0.000162422
0.000157293
0.000147714
0.000133675
0.000114916
8.82755e-05
7.25161e-05
5.55951e-05
4.51629e-05
3.883e-05
3.64071e-05
2.48777e-05
9.13272e-05
9.82661e-05
0.000100468
0.000108598
0.000116984
0.000122067
0.000123877
0.000123495
0.000117236
0.00010813
9.62245e-05
8.26804e-05
6.76118e-05
5.9384e-05
5.28216e-05
4.36246e-05
3.95035e-05
3.63616e-05
3.44257e-05
2.49326e-05
9.44257e-05
8.11408e-05
7.57825e-05
7.53943e-05
7.60599e-05
7.5082e-05
7.32855e-05
6.86016e-05
6.22685e-05
5.63057e-05
5.07469e-05
4.66635e-05
4.3016e-05
4.0025e-05
3.79696e-05
3.66434e-05
3.72716e-05
3.55311e-05
3.16242e-05
2.49411e-05
9.91021e-05
7.46012e-05
6.07378e-05
5.38969e-05
5.01986e-05
4.70787e-05
4.39765e-05
4.14539e-05
3.98981e-05
3.86414e-05
3.79725e-05
3.75547e-05
3.73896e-05
3.74318e-05
3.77495e-05
3.76928e-05
3.56111e-05
3.43722e-05
2.59895e-05
2.49129e-05
9.86198e-05
7.43455e-05
6.07547e-05
5.42115e-05
5.07976e-05
4.7666e-05
4.46393e-05
4.22105e-05
4.04014e-05
3.90871e-05
3.81874e-05
3.76991e-05
3.73655e-05
3.7308e-05
3.76533e-05
3.77222e-05
3.58173e-05
3.46393e-05
2.65411e-05
2.48698e-05
9.33029e-05
7.94611e-05
7.39102e-05
7.36118e-05
7.56157e-05
7.51763e-05
7.35452e-05
7.07542e-05
6.42392e-05
5.86194e-05
5.25273e-05
4.81478e-05
4.44341e-05
4.03977e-05
3.83546e-05
3.61764e-05
3.70707e-05
3.53826e-05
3.20021e-05
2.47839e-05
8.95562e-05
9.51436e-05
9.74099e-05
0.000105667
0.000114665
0.000120903
0.000123505
0.000123766
0.000118937
0.000110796
9.93409e-05
8.59301e-05
7.02987e-05
6.10032e-05
5.43001e-05
4.43388e-05
3.97639e-05
3.64746e-05
3.45673e-05
2.45873e-05
8.26952e-05
9.69117e-05
0.000104142
0.00011979
0.000135171
0.0001486
0.000157767
0.000161531
0.000161858
0.000157562
0.00014872
0.000135346
0.000117052
9.04571e-05
7.37273e-05
5.62708e-05
4.53183e-05
3.88004e-05
3.64931e-05
2.4331e-05
7.70072e-05
9.80523e-05
0.00011128
0.000126753
0.000143126
0.000157864
0.000169626
0.000178925
0.000183579
0.000183591
0.000177947
0.000167142
0.000151028
0.000128597
0.000102512
7.63556e-05
5.43869e-05
4.1906e-05
3.81237e-05
2.40947e-05
6.4491e-05
9.6233e-05
0.000112172
0.0001289
0.000144505
0.000160177
0.000173803
0.000183359
0.000188213
0.00018851
0.000184926
0.00017596
0.000161749
0.000140886
0.000114436
8.41731e-05
5.99116e-05
4.51059e-05
3.97882e-05
2.36064e-05
4.88801e-05
7.66089e-05
9.59318e-05
0.000113191
0.000131362
0.000145312
0.00015663
0.000164823
0.000169396
0.000170135
0.000166371
0.00015979
0.000149164
0.000131047
0.000108294
7.91456e-05
5.70752e-05
4.38565e-05
4.17648e-05
2.29129e-05
4.20074e-05
6.56781e-05
8.15428e-05
8.76235e-05
9.37769e-05
9.85627e-05
0.000102722
0.000107226
0.000111181
0.000114053
0.000114287
0.000112769
0.000105987
9.87002e-05
8.51643e-05
6.53775e-05
5.05203e-05
4.44979e-05
4.47219e-05
2.20072e-05
3.09955e-05
3.87097e-05
4.13923e-05
4.17926e-05
4.21677e-05
4.29329e-05
4.42167e-05
4.60232e-05
4.8204e-05
5.06073e-05
5.2794e-05
5.46805e-05
5.581e-05
5.56545e-05
5.3739e-05
4.99895e-05
4.67461e-05
4.95842e-05
4.95535e-05
3.53252e-05
4.26064e-05
4.65497e-05
4.83765e-05
4.95315e-05
5.03519e-05
5.10113e-05
5.15398e-05
5.1989e-05
5.23568e-05
5.2684e-05
5.29788e-05
5.3274e-05
5.35785e-05
5.39788e-05
5.43488e-05
5.4785e-05
5.53831e-05
5.72943e-05
5.47324e-05
)
;

boundaryField
{
    movingWall
    {
        type            nutkWallFunction;
        Cmu             0.09;
        kappa           0.41;
        E               9.8;
        value           nonuniform List<scalar> 
20
(
0
0
0
1.83755e-07
3.75382e-07
5.1108e-07
6.19902e-07
7.06955e-07
7.80832e-07
8.41241e-07
8.94951e-07
9.43276e-07
9.91633e-07
1.04146e-06
1.10691e-06
1.16734e-06
1.23851e-06
1.33594e-06
1.64624e-06
1.22988e-06
)
;
    }
    movingWallBottom
    {
        type            nutkWallFunction;
        Cmu             0.09;
        kappa           0.41;
        E               9.8;
        value           nonuniform List<scalar> 
20
(
0
0
0
1.86627e-07
3.81899e-07
5.2049e-07
6.3191e-07
7.20555e-07
7.95976e-07
8.56931e-07
9.11562e-07
9.59748e-07
1.00843e-06
1.05747e-06
1.12235e-06
1.18223e-06
1.25244e-06
1.34903e-06
1.65695e-06
1.23771e-06
)
;
    }
    fixedWalls
    {
        type            nutkWallFunction;
        Cmu             0.09;
        kappa           0.41;
        E               9.8;
        value           nonuniform List<scalar> 
40
(
0
0
0
0
0
0
0
0
0
0
0
0
0
0
0
0
0
0
0
0
1.23771e-06
3.85398e-07
0
0
0
0
0
0
0
0
0
0
0
0
0
0
0
0
3.78952e-07
1.22988e-06
)
;
    }
    frontAndBack
    {
        type            empty;
    }
}


// ************************************************************************* //
