/*--------------------------------*- C++ -*----------------------------------*\
| =========                 |                                                 |
| \\      /  F ield         | OpenFOAM: The Open Source CFD Toolbox           |
|  \\    /   O peration     | Version:  4.1                                   |
|   \\  /    A nd           | Web:      www.OpenFOAM.org                      |
|    \\/     M anipulation  |                                                 |
\*---------------------------------------------------------------------------*/
FoamFile
{
    version     2.0;
    format      ascii;
    class       volScalarField;
    location    "9.5";
    object      p;
}
// * * * * * * * * * * * * * * * * * * * * * * * * * * * * * * * * * * * * * //

dimensions      [0 2 -2 0 0 0 0];

internalField   nonuniform List<scalar> 
400
(
1.34747e-08
0.000382559
-0.00362408
-0.00748524
-0.0108137
-0.0136471
-0.0160287
-0.0179673
-0.0194853
-0.0206214
-0.0214185
-0.0218813
-0.0219629
-0.0215404
-0.0204047
-0.0181401
-0.0133834
-0.00499141
0.00810337
0.0286848
-0.00602806
-0.00555694
-0.00731326
-0.00983298
-0.0125629
-0.0151006
-0.0172646
-0.0190121
-0.0203722
-0.021397
-0.0221338
-0.022594
-0.0227518
-0.0224977
-0.0215851
-0.0196539
-0.0163818
-0.0107519
-0.00260621
0.0162443
-0.00681657
-0.00727989
-0.00898716
-0.0113335
-0.0138216
-0.0160842
-0.0179732
-0.0194859
-0.0206743
-0.0215864
-0.0222562
-0.0226781
-0.0228383
-0.0226372
-0.0220583
-0.0207118
-0.0185645
-0.0148597
-0.0110478
-9.24876e-05
-0.00815727
-0.00906732
-0.0108331
-0.0131147
-0.0153745
-0.0173447
-0.0189503
-0.0202202
-0.0212127
-0.0219751
-0.0225369
-0.0229047
-0.0230654
-0.0229517
-0.0225042
-0.0215292
-0.0200976
-0.0172953
-0.0159005
-0.00952634
-0.00859428
-0.00989001
-0.0117521
-0.0140233
-0.0161913
-0.0180402
-0.0195197
-0.0206647
-0.0215396
-0.0222008
-0.0226846
-0.0230033
-0.0231436
-0.023054
-0.0226741
-0.0218933
-0.0208417
-0.0182605
-0.0173215
-0.0123748
-0.00781163
-0.00954021
-0.0116155
-0.014029
-0.016283
-0.0181796
-0.0196784
-0.020816
-0.0216601
-0.0222738
-0.0227037
-0.0229675
-0.0230534
-0.0229128
-0.0224801
-0.0216777
-0.0204537
-0.0179463
-0.0157637
-0.0109054
-0.00586762
-0.00791482
-0.0103264
-0.0130355
-0.0155759
-0.0177051
-0.0193692
-0.0206086
-0.021502
-0.0221175
-0.0225086
-0.0227025
-0.0226857
-0.0224055
-0.0218082
-0.020747
-0.0189014
-0.0157506
-0.0118312
-0.00666455
-0.00301185
-0.0053857
-0.00815333
-0.0112464
-0.0141954
-0.016683
-0.0186236
-0.0200476
-0.0210407
-0.021682
-0.0220361
-0.0221321
-0.0219602
-0.021479
-0.0205721
-0.0189333
-0.0160497
-0.0115261
-0.00572504
-0.000406626
-6.43241e-05
-0.00260231
-0.00562865
-0.00905308
-0.0123934
-0.0152752
-0.0175557
-0.0192244
-0.0203643
-0.02107
-0.02141
-0.0214136
-0.0210844
-0.0203491
-0.0189483
-0.0164109
-0.0121508
-0.00587483
0.00194884
0.00638538
0.00186791
-0.000743225
-0.00390471
-0.00755652
-0.0111503
-0.0142386
-0.0167005
-0.0185366
-0.0198143
-0.0206003
-0.0209445
-0.0208731
-0.0204103
-0.0194262
-0.0175517
-0.0141811
-0.00870894
-0.00109851
0.00721906
0.0112774
0.0018158
-0.00078314
-0.00393968
-0.00759627
-0.0112033
-0.0143004
-0.0167688
-0.0186099
-0.0198887
-0.0206754
-0.0210252
-0.0209708
-0.0205127
-0.0195265
-0.0176747
-0.0143462
-0.00893723
-0.00140302
0.0068542
0.0109279
-0.000170197
-0.00267949
-0.00569362
-0.00912929
-0.012494
-0.0154018
-0.017711
-0.0194054
-0.020566
-0.0212821
-0.0216242
-0.0216274
-0.0212983
-0.0205678
-0.0191961
-0.0167241
-0.0125767
-0.00646027
0.00116185
0.0056386
-0.00311585
-0.00545558
-0.00821174
-0.0113219
-0.0143057
-0.0168359
-0.0188167
-0.020271
-0.0212865
-0.0219394
-0.0222946
-0.0223859
-0.0222063
-0.0217174
-0.0208128
-0.0192101
-0.0164175
-0.0120369
-0.00644753
-0.00118012
-0.00593484
-0.00795528
-0.010364
-0.013101
-0.0156862
-0.0178641
-0.0195711
-0.0208414
-0.0217529
-0.0223744
-0.0227613
-0.0229418
-0.0229064
-0.0226105
-0.0220014
-0.0209476
-0.0191548
-0.0160871
-0.0123334
-0.00726962
-0.00783121
-0.0095395
-0.0116217
-0.0140711
-0.0163754
-0.0183245
-0.0198688
-0.0210393
-0.0219012
-0.0225189
-0.0229412
-0.0231874
-0.0232498
-0.0230846
-0.0226298
-0.0218129
-0.0206051
-0.018116
-0.0160657
-0.0112915
-0.00856683
-0.00984846
-0.011723
-0.01403
-0.0162504
-0.0181556
-0.0196846
-0.0208657
-0.0217605
-0.0224262
-0.022902
-0.0232017
-0.0233164
-0.0231968
-0.0227877
-0.0219822
-0.0209102
-0.0183275
-0.0174795
-0.0125522
-0.0080946
-0.0089929
-0.0107679
-0.0130836
-0.0153958
-0.0174239
-0.0190817
-0.0203903
-0.0214057
-0.0221756
-0.0227316
-0.023082
-0.0232173
-0.0230686
-0.0225857
-0.0215739
-0.0201096
-0.0172992
-0.0159152
-0.00955879
-0.00673892
-0.00718483
-0.00889801
-0.011273
-0.0138066
-0.016124
-0.0180656
-0.0196202
-0.0208359
-0.0217594
-0.0224263
-0.022832
-0.0229659
-0.0227313
-0.0221143
-0.0207239
-0.0185355
-0.014806
-0.0109663
-8.81386e-06
-0.00595664
-0.00546025
-0.00720712
-0.00974511
-0.0125134
-0.0151021
-0.01732
-0.019115
-0.02051
-0.0215534
-0.0222927
-0.0227407
-0.0228737
-0.0225833
-0.0216231
-0.01964
-0.0163163
-0.0106422
-0.00244769
0.0164161
5.21607e-05
0.00045449
-0.00353115
-0.00740164
-0.0107642
-0.0136467
-0.0160815
-0.0180679
-0.0196209
-0.0207758
-0.0215745
-0.0220232
-0.0220769
-0.0216157
-0.0204308
-0.01811
-0.0132893
-0.00483916
0.00830659
0.0289152
)
;

boundaryField
{
    movingWall
    {
        type            zeroGradient;
    }
    movingWallBottom
    {
        type            zeroGradient;
    }
    fixedWalls
    {
        type            zeroGradient;
    }
    frontAndBack
    {
        type            empty;
    }
}


// ************************************************************************* //
