/*--------------------------------*- C++ -*----------------------------------*\
| =========                 |                                                 |
| \\      /  F ield         | OpenFOAM: The Open Source CFD Toolbox           |
|  \\    /   O peration     | Version:  4.1                                   |
|   \\  /    A nd           | Web:      www.OpenFOAM.org                      |
|    \\/     M anipulation  |                                                 |
\*---------------------------------------------------------------------------*/
FoamFile
{
    version     2.0;
    format      ascii;
    class       surfaceScalarField;
    location    "9.5";
    object      phi;
}
// * * * * * * * * * * * * * * * * * * * * * * * * * * * * * * * * * * * * * //

dimensions      [0 3 -1 0 0 0 0];

internalField   nonuniform List<scalar> 
760
(
3.21408e-06
-3.21408e-06
5.42584e-06
-2.21176e-06
7.13284e-06
-1.707e-06
8.56635e-06
-1.43351e-06
9.76478e-06
-1.19844e-06
1.07487e-05
-9.83952e-07
1.15492e-05
-8.00495e-07
1.2205e-05
-6.558e-07
1.27483e-05
-5.43257e-07
1.32019e-05
-4.53628e-07
1.35778e-05
-3.75843e-07
1.3877e-05
-2.99246e-07
1.40973e-05
-2.20249e-07
1.4204e-05
-1.06724e-07
1.41983e-05
5.66804e-09
1.38505e-05
3.4778e-07
1.31227e-05
7.27799e-07
1.12298e-05
1.89294e-06
7.72892e-06
3.50087e-06
7.72892e-06
1.02098e-06
-4.23506e-06
2.51854e-06
-3.70932e-06
3.90861e-06
-3.09706e-06
5.00502e-06
-2.52992e-06
5.82797e-06
-2.02139e-06
6.4364e-06
-1.59239e-06
6.88344e-06
-1.24754e-06
7.20748e-06
-9.79841e-07
7.44144e-06
-7.77209e-07
7.60584e-06
-6.18031e-07
7.7204e-06
-4.90407e-07
7.7873e-06
-3.66145e-07
7.80748e-06
-2.40432e-07
7.71603e-06
-1.52731e-08
7.53004e-06
1.91663e-07
7.18295e-06
6.94873e-07
6.52696e-06
1.38379e-06
5.34779e-06
3.0721e-06
2.93052e-06
5.91814e-06
1.06594e-05
9.4108e-07
-5.17614e-06
2.08749e-06
-4.85573e-06
3.0425e-06
-4.05207e-06
3.75294e-06
-3.24036e-06
4.25071e-06
-2.51916e-06
4.58011e-06
-1.92179e-06
4.78178e-06
-1.44921e-06
4.8913e-06
-1.08937e-06
4.93491e-06
-8.20818e-07
4.93354e-06
-6.16654e-07
4.89447e-06
-4.51343e-07
4.82318e-06
-2.94857e-07
4.70502e-06
-1.22267e-07
4.56365e-06
1.26093e-07
4.28479e-06
4.70526e-07
3.89889e-06
1.08078e-06
3.2331e-06
2.04957e-06
2.39785e-06
3.90735e-06
1.08754e-06
7.22845e-06
1.1747e-05
6.99391e-07
-5.87553e-06
1.35432e-06
-5.51066e-06
1.92402e-06
-4.62177e-06
2.35866e-06
-3.675e-06
2.65594e-06
-2.81644e-06
2.83939e-06
-2.10524e-06
2.93904e-06
-1.54886e-06
2.97989e-06
-1.13022e-06
2.9793e-06
-8.20228e-07
2.94883e-06
-5.86181e-07
2.89262e-06
-3.95136e-07
2.81004e-06
-2.12272e-07
2.69131e-06
-3.54164e-09
2.5307e-06
2.86707e-07
2.29907e-06
7.02153e-07
1.99928e-06
1.38056e-06
1.53314e-06
2.51572e-06
1.00018e-06
4.44031e-06
3.98271e-07
7.83036e-06
1.21453e-05
3.36406e-07
-6.21194e-06
5.26611e-07
-5.70087e-06
7.1802e-07
-4.81318e-06
8.80089e-07
-3.83707e-06
9.9214e-07
-2.92849e-06
1.05822e-06
-2.17131e-06
1.08937e-06
-1.58001e-06
1.09584e-06
-1.13669e-06
1.08445e-06
-8.08844e-07
1.05917e-06
-5.60897e-07
1.02032e-06
-3.56284e-07
9.65494e-07
-1.57447e-07
8.87989e-07
7.39637e-08
7.83731e-07
3.90965e-07
6.41461e-07
8.44423e-07
4.61145e-07
1.56088e-06
2.9287e-07
2.68399e-06
-1.09376e-07
4.84255e-06
-2.00647e-07
7.92163e-06
1.19446e-05
-2.25186e-07
-5.98675e-06
-4.28179e-07
-5.49787e-06
-5.73548e-07
-4.66781e-06
-6.78167e-07
-3.73245e-06
-7.5974e-07
-2.84691e-06
-8.21803e-07
-2.10925e-06
-8.66663e-07
-1.53515e-06
-8.97356e-07
-1.10599e-06
-9.18181e-07
-7.88019e-07
-9.32727e-07
-5.46352e-07
-9.45372e-07
-3.43639e-07
-9.607e-07
-1.42119e-07
-9.83184e-07
9.64477e-08
-1.01024e-06
4.18025e-07
-1.0408e-06
8.74983e-07
-1.06265e-06
1.58273e-06
-1.08372e-06
2.70506e-06
-1.01235e-06
4.77119e-06
-8.87616e-07
7.7969e-06
1.1057e-05
-7.2748e-07
-5.25927e-06
-1.42004e-06
-4.80531e-06
-1.94386e-06
-4.144e-06
-2.34338e-06
-3.33293e-06
-2.63479e-06
-2.5555e-06
-2.83975e-06
-1.90429e-06
-2.97916e-06
-1.39575e-06
-3.06889e-06
-1.01626e-06
-3.12257e-06
-7.34339e-07
-3.14962e-06
-5.19296e-07
-3.15784e-06
-3.35425e-07
-3.15435e-06
-1.4561e-07
-3.14281e-06
8.49134e-08
-3.10887e-06
3.84078e-07
-3.0493e-06
8.15412e-07
-2.9478e-06
1.48123e-06
-2.79942e-06
2.55669e-06
-2.42738e-06
4.39914e-06
-1.77481e-06
7.14434e-06
9.28218e-06
-1.30756e-06
-3.95171e-06
-2.48606e-06
-3.62682e-06
-3.43437e-06
-3.19569e-06
-4.16755e-06
-2.59975e-06
-4.71019e-06
-2.01286e-06
-5.09895e-06
-1.51553e-06
-5.37519e-06
-1.1195e-06
-5.57112e-06
-8.20338e-07
-5.70979e-06
-5.95667e-07
-5.808e-06
-4.21086e-07
-5.87693e-06
-2.66494e-07
-5.92432e-06
-9.82234e-08
-5.94071e-06
1.01306e-07
-5.90288e-06
3.46246e-07
-5.78165e-06
6.9418e-07
-5.53322e-06
1.23281e-06
-5.0842e-06
2.10766e-06
-4.2062e-06
3.52114e-06
-2.51104e-06
5.44918e-06
6.77114e-06
-1.83124e-06
-2.12047e-06
-3.51413e-06
-1.94392e-06
-4.97239e-06
-1.73743e-06
-6.15364e-06
-1.4185e-06
-7.06062e-06
-1.10587e-06
-7.73451e-06
-8.41648e-07
-8.22692e-06
-6.27091e-07
-8.59128e-06
-4.55972e-07
-8.86459e-06
-3.22361e-07
-9.06829e-06
-2.17383e-07
-9.21051e-06
-1.24282e-07
-9.28657e-06
-2.21611e-08
-9.26888e-06
8.36149e-08
-9.1386e-06
2.15971e-07
-8.84149e-06
3.97074e-07
-8.29042e-06
6.81729e-07
-7.33434e-06
1.15158e-06
-5.72787e-06
1.91467e-06
-3.30368e-06
3.02499e-06
3.46746e-06
-2.17689e-06
5.64151e-08
-4.17593e-06
5.51255e-08
-5.98014e-06
6.6775e-08
-7.47946e-06
8.08197e-08
-8.67245e-06
8.71152e-08
-9.60359e-06
8.94905e-08
-1.03129e-05
8.21858e-08
-1.08413e-05
7.24712e-08
-1.12217e-05
5.79962e-08
-1.14821e-05
4.30292e-08
-1.16347e-05
2.8303e-08
-1.16686e-05
1.18014e-08
-1.15783e-05
-6.68649e-09
-1.13431e-05
-1.92513e-08
-1.09082e-05
-3.78436e-08
-1.01702e-05
-5.6275e-08
-8.93349e-06
-8.5103e-08
-6.89585e-06
-1.22969e-07
-3.69456e-06
-1.76308e-07
-2.27094e-07
-2.15794e-06
2.21435e-06
-4.14341e-06
2.0406e-06
-5.93399e-06
1.85735e-06
-7.41945e-06
1.56629e-06
-8.59722e-06
1.26488e-06
-9.50802e-06
1.00029e-06
-1.02005e-05
7.74648e-07
-1.07157e-05
5.87679e-07
-1.10879e-05
4.30165e-07
-1.13437e-05
2.98844e-07
-1.14924e-05
1.76983e-07
-1.15239e-05
4.33224e-08
-1.14363e-05
-9.42465e-08
-1.12041e-05
-2.51443e-07
-1.07771e-05
-4.6482e-07
-1.00493e-05
-7.84092e-07
-8.82887e-06
-1.30556e-06
-6.81225e-06
-2.13959e-06
-3.64452e-06
-3.34404e-06
-3.87161e-06
-1.80322e-06
4.01757e-06
-3.46749e-06
3.70487e-06
-4.90918e-06
3.29904e-06
-6.07081e-06
2.72792e-06
-6.95658e-06
2.15065e-06
-7.60248e-06
1.64618e-06
-8.06292e-06
1.23509e-06
-8.39071e-06
9.15464e-07
-8.62728e-06
6.66743e-07
-8.79781e-06
4.69372e-07
-8.91337e-06
2.92538e-07
-8.97421e-06
1.04169e-07
-8.95555e-06
-1.12911e-07
-8.82908e-06
-3.77913e-07
-8.54788e-06
-7.4602e-07
-8.02398e-06
-1.30799e-06
-7.11299e-06
-2.21654e-06
-5.56576e-06
-3.68682e-06
-3.21391e-06
-5.6959e-06
-7.08552e-06
-1.28256e-06
5.30014e-06
-2.4473e-06
4.8696e-06
-3.3847e-06
4.23644e-06
-4.10253e-06
3.44575e-06
-4.62392e-06
2.67203e-06
-4.98756e-06
2.00983e-06
-5.23545e-06
1.48299e-06
-5.40146e-06
1.08148e-06
-5.51118e-06
7.76463e-07
-5.58157e-06
5.39755e-07
-5.62496e-06
3.35932e-07
-5.65092e-06
1.30129e-07
-5.65184e-06
-1.11994e-07
-5.60609e-06
-4.23659e-07
-5.48752e-06
-8.64592e-07
-5.25522e-06
-1.54029e-06
-4.84485e-06
-2.62691e-06
-4.03529e-06
-4.49638e-06
-2.4317e-06
-7.29949e-06
-9.51722e-06
-7.0791e-07
6.00805e-06
-1.38743e-06
5.54912e-06
-1.89881e-06
4.74782e-06
-2.28303e-06
3.82997e-06
-2.55615e-06
2.94515e-06
-2.74217e-06
2.19585e-06
-2.86287e-06
1.60369e-06
-2.93499e-06
1.1536e-06
-2.97327e-06
8.14745e-07
-2.98727e-06
5.53748e-07
-2.98511e-06
3.33779e-07
-2.97369e-06
1.18709e-07
-2.95474e-06
-1.30947e-07
-2.9175e-06
-4.60898e-07
-2.85715e-06
-9.24948e-07
-2.75839e-06
-1.63905e-06
-2.62038e-06
-2.76493e-06
-2.2727e-06
-4.84406e-06
-1.6925e-06
-7.8797e-06
-1.12097e-05
-2.08132e-07
6.21618e-06
-3.97832e-07
5.73882e-06
-5.30547e-07
4.88053e-06
-6.1921e-07
3.91863e-06
-6.84509e-07
3.01045e-06
-7.31734e-07
2.24307e-06
-7.63718e-07
1.63568e-06
-7.83917e-07
1.17379e-06
-7.96805e-07
8.27633e-07
-8.05976e-07
5.62919e-07
-8.15876e-07
3.43679e-07
-8.30402e-07
1.33235e-07
-8.53732e-07
-1.07617e-07
-8.83763e-07
-4.30867e-07
-9.19739e-07
-8.88972e-07
-9.50191e-07
-1.60859e-06
-9.75258e-07
-2.73986e-06
-9.26834e-07
-4.89248e-06
-8.34873e-07
-7.97166e-06
-1.20446e-05
3.49878e-07
5.8663e-06
5.53993e-07
5.53471e-06
7.60632e-07
4.67389e-06
9.38754e-07
3.74051e-06
1.06631e-06
2.88289e-06
1.14587e-06
2.16352e-06
1.18758e-06
1.59397e-06
1.20136e-06
1.16001e-06
1.19415e-06
8.34844e-07
1.17014e-06
5.86923e-07
1.12982e-06
3.84002e-07
1.07169e-06
1.91362e-07
9.88991e-07
-2.49173e-08
8.78623e-07
-3.20499e-07
7.29391e-07
-7.3974e-07
5.42206e-07
-1.42141e-06
3.56439e-07
-2.55409e-06
-6.54536e-08
-4.47059e-06
-1.50765e-07
-7.88635e-06
-1.21953e-05
7.06549e-07
5.15975e-06
1.37609e-06
4.86516e-06
1.9619e-06
4.08809e-06
2.41537e-06
3.28704e-06
2.73059e-06
2.56767e-06
2.92863e-06
1.96548e-06
3.03868e-06
1.48392e-06
3.08569e-06
1.113e-06
3.08725e-06
8.33277e-07
3.05553e-06
6.18646e-07
2.9951e-06
4.44436e-07
2.90625e-06
2.80208e-07
2.77831e-06
1.03026e-07
2.60916e-06
-1.51355e-07
2.36668e-06
-4.97256e-07
2.05497e-06
-1.1097e-06
1.5766e-06
-2.07573e-06
1.04257e-06
-3.93656e-06
4.15343e-07
-7.25912e-06
-1.178e-05
9.40795e-07
4.21896e-06
2.09785e-06
3.70811e-06
3.07138e-06
3.11456e-06
3.8018e-06
2.55662e-06
4.31872e-06
2.05075e-06
4.66466e-06
1.61954e-06
4.87858e-06
1.27001e-06
4.99558e-06
9.95997e-07
5.04166e-06
7.87201e-07
5.03849e-06
6.21821e-07
4.99362e-06
4.893e-07
4.91397e-06
3.59861e-07
4.78626e-06
2.30739e-07
4.63446e-06
4.4414e-10
4.34155e-06
-2.04349e-07
3.94398e-06
-7.12125e-07
3.2675e-06
-1.39925e-06
2.42269e-06
-3.09175e-06
1.09976e-06
-5.93618e-06
-1.06803e-05
1.01296e-06
3.206e-06
2.51355e-06
2.20752e-06
3.91684e-06
1.71127e-06
5.03015e-06
1.44331e-06
5.87111e-06
1.20979e-06
6.49586e-06
9.94789e-07
6.9559e-06
8.09976e-07
7.2891e-06
6.62788e-07
7.52804e-06
5.48269e-07
7.69381e-06
4.56049e-07
7.80613e-06
3.76973e-07
7.86812e-06
2.97873e-07
7.8804e-06
2.18456e-07
7.7782e-06
1.02647e-07
7.58277e-06
-8.91206e-09
7.22592e-06
-3.5528e-07
6.56032e-06
-7.33645e-07
5.37057e-06
-1.90201e-06
2.94316e-06
-3.50877e-06
-7.73709e-06
3.206e-06
5.41352e-06
7.12479e-06
8.5681e-06
9.77789e-06
1.07727e-05
1.15827e-05
1.22454e-05
1.27937e-05
1.32498e-05
1.36267e-05
1.39246e-05
1.41431e-05
1.42457e-05
1.42368e-05
1.38815e-05
1.31479e-05
1.12459e-05
7.73709e-06
)
;

boundaryField
{
    movingWall
    {
        type            calculated;
        value           uniform 0;
    }
    movingWallBottom
    {
        type            calculated;
        value           uniform 0;
    }
    fixedWalls
    {
        type            calculated;
        value           uniform 0;
    }
    frontAndBack
    {
        type            empty;
        value           nonuniform 0();
    }
}


// ************************************************************************* //
