/*--------------------------------*- C++ -*----------------------------------*\
| =========                 |                                                 |
| \\      /  F ield         | OpenFOAM: The Open Source CFD Toolbox           |
|  \\    /   O peration     | Version:  4.1                                   |
|   \\  /    A nd           | Web:      www.OpenFOAM.org                      |
|    \\/     M anipulation  |                                                 |
\*---------------------------------------------------------------------------*/
FoamFile
{
    version     2.0;
    format      ascii;
    class       volVectorField;
    location    "9.5";
    object      U;
}
// * * * * * * * * * * * * * * * * * * * * * * * * * * * * * * * * * * * * * //

dimensions      [0 1 -1 0 0 0 0];

internalField   nonuniform List<vector> 
400
(
(0.0637343 -0.0988644 0)
(0.0775328 -0.0640114 0)
(0.123723 -0.0435774 0)
(0.158275 -0.0340124 0)
(0.184788 -0.0280884 0)
(0.206297 -0.0236496 0)
(0.223752 -0.020022 0)
(0.238482 -0.017119 0)
(0.250178 -0.0146681 0)
(0.260257 -0.0127179 0)
(0.267876 -0.0108887 0)
(0.274695 -0.00939723 0)
(0.279023 -0.00765493 0)
(0.282637 -0.00610877 0)
(0.282853 -0.00368916 0)
(0.2796 -0.000521788 0)
(0.269199 0.00136032 0)
(0.250438 0.011713 0)
(0.188858 0.0225189 0)
(0.172596 0.117428 0)
(0.015629 -0.0514898 0)
(0.0310775 -0.0421644 0)
(0.0641253 -0.0368629 0)
(0.0888356 -0.0315967 0)
(0.108382 -0.026151 0)
(0.123152 -0.0210293 0)
(0.133892 -0.0166314 0)
(0.141727 -0.0131518 0)
(0.14706 -0.0105832 0)
(0.151027 -0.00853373 0)
(0.153315 -0.00693344 0)
(0.155281 -0.00512283 0)
(0.155369 -0.0034942 0)
(0.155411 2.04956e-05 0)
(0.151139 0.00304599 0)
(0.147982 0.0113777 0)
(0.133625 0.0214008 0)
(0.126524 0.0501579 0)
(0.0651533 0.0939864 0)
(0.0900046 0.16451 0)
(0.0110824 -0.101145 0)
(0.0293733 -0.0932582 0)
(0.0512136 -0.0787921 0)
(0.0678048 -0.0645909 0)
(0.0802524 -0.0510864 0)
(0.0889166 -0.0394597 0)
(0.0942812 -0.0302009 0)
(0.0972817 -0.0231538 0)
(0.0986281 -0.0178864 0)
(0.0989457 -0.0138591 0)
(0.0983697 -0.0106125 0)
(0.097341 -0.00763969 0)
(0.0950957 -0.00445231 0)
(0.0930113 -0.000106102 0)
(0.0875876 0.00595342 0)
(0.0835618 0.0174203 0)
(0.068387 0.0349145 0)
(0.0674125 0.0723959 0)
(0.0126426 0.135641 0)
(0.049718 0.222679 0)
(0.00706213 -0.113814 0)
(0.0204984 -0.10662 0)
(0.0318707 -0.0886271 0)
(0.0426457 -0.0699063 0)
(0.0504579 -0.053669 0)
(0.0554558 -0.0404549 0)
(0.0582531 -0.0300836 0)
(0.0595417 -0.0222183 0)
(0.059831 -0.0163528 0)
(0.0594487 -0.0119103 0)
(0.0585272 -0.00830518 0)
(0.0571302 -0.00489592 0)
(0.0550257 -0.00104195 0)
(0.0523917 0.00440004 0)
(0.0480482 0.0120174 0)
(0.0442122 0.0248454 0)
(0.0321208 0.0462139 0)
(0.0366638 0.0853697 0)
(-0.0069749 0.154702 0)
(0.0320935 0.250489 0)
(0.00266694 -0.123764 0)
(0.00890626 -0.115318 0)
(0.0113967 -0.0969647 0)
(0.015617 -0.0772047 0)
(0.0187603 -0.0589008 0)
(0.0207373 -0.0436933 0)
(0.0217346 -0.0318636 0)
(0.0220673 -0.0229889 0)
(0.0219529 -0.0164282 0)
(0.0215412 -0.0114957 0)
(0.0208638 -0.00748017 0)
(0.0199055 -0.0036112 0)
(0.0185443 0.000873443 0)
(0.016761 0.0069636 0)
(0.0141755 0.0157307 0)
(0.0119697 0.0297912 0)
(0.00374857 0.0525658 0)
(0.0119098 0.093703 0)
(-0.0196922 0.16231 0)
(0.0174808 0.251225 0)
(-0.00539803 -0.124293 0)
(-0.0059289 -0.113438 0)
(-0.0112901 -0.0960887 0)
(-0.0132003 -0.0767459 0)
(-0.0146599 -0.0585597 0)
(-0.0158773 -0.0433868 0)
(-0.0168447 -0.0315426 0)
(-0.0175841 -0.0226978 0)
(-0.0181005 -0.0161535 0)
(-0.0184767 -0.011172 0)
(-0.0187759 -0.00701985 0)
(-0.0190801 -0.00293678 0)
(-0.0195176 0.00184011 0)
(-0.0200572 0.00827413 0)
(-0.0206853 0.0175801 0)
(-0.0212285 0.031963 0)
(-0.0242496 0.0545216 0)
(-0.0143642 0.0959468 0)
(-0.0329496 0.159354 0)
(0.00814727 0.237684 0)
(-0.0116727 -0.112244 0)
(-0.0217594 -0.104121 0)
(-0.0354571 -0.0892101 0)
(-0.0442972 -0.0715881 0)
(-0.0505093 -0.0547839 0)
(-0.0551003 -0.040732 0)
(-0.0583109 -0.0297597 0)
(-0.0605503 -0.0215368 0)
(-0.0619539 -0.0154651 0)
(-0.0627537 -0.0108591 0)
(-0.0631325 -0.00694104 0)
(-0.0632397 -0.00298044 0)
(-0.0631627 0.00178289 0)
(-0.0628185 0.00819795 0)
(-0.0623336 0.0169577 0)
(-0.0614852 0.0303574 0)
(-0.059511 0.0526108 0)
(-0.0491311 0.0934599 0)
(-0.0508578 0.154302 0)
(-0.00681103 0.210548 0)
(-0.0198711 -0.0915555 0)
(-0.0384799 -0.0845311 0)
(-0.0613894 -0.0739347 0)
(-0.078276 -0.0598838 0)
(-0.0900118 -0.0463235 0)
(-0.0988164 -0.0347794 0)
(-0.104982 -0.0256377 0)
(-0.10962 -0.0187851 0)
(-0.112855 -0.0135988 0)
(-0.115233 -0.00955892 0)
(-0.116946 -0.00606843 0)
(-0.118197 -0.00242129 0)
(-0.119046 0.00205667 0)
(-0.119396 0.0079455 0)
(-0.118932 0.0165261 0)
(-0.116055 0.0299474 0)
(-0.108536 0.0514628 0)
(-0.0917142 0.0869033 0)
(-0.0679071 0.1356 0)
(-0.019613 0.170236 0)
(-0.0263705 -0.0593381 0)
(-0.0539379 -0.055257 0)
(-0.0871956 -0.0489973 0)
(-0.114487 -0.0395849 0)
(-0.133974 -0.0304068 0)
(-0.149362 -0.0230183 0)
(-0.160088 -0.0171484 0)
(-0.168453 -0.0125512 0)
(-0.174562 -0.00899702 0)
(-0.179527 -0.00619613 0)
(-0.18298 -0.00363839 0)
(-0.185424 -0.000829962 0)
(-0.186758 0.00272505 0)
(-0.186462 0.00725349 0)
(-0.183393 0.0135562 0)
(-0.175541 0.0233372 0)
(-0.159139 0.0392541 0)
(-0.129829 0.0642253 0)
(-0.0809024 0.0971904 0)
(-0.0460968 0.112441 0)
(-0.0310226 -0.0202945 0)
(-0.0636027 -0.0186368 0)
(-0.103808 -0.0166974 0)
(-0.138873 -0.0137395 0)
(-0.163568 -0.0109384 0)
(-0.184347 -0.00805942 0)
(-0.199804 -0.00563089 0)
(-0.212106 -0.00378172 0)
(-0.220911 -0.00242725 0)
(-0.227441 -0.00137923 0)
(-0.23154 -0.000483069 0)
(-0.233627 0.000367544 0)
(-0.234233 0.00151726 0)
(-0.23247 0.00309647 0)
(-0.227156 0.0052325 0)
(-0.215035 0.00878361 0)
(-0.192252 0.0145817 0)
(-0.154438 0.0237129 0)
(-0.0996983 0.0352816 0)
(-0.0499959 0.0389839 0)
(-0.0307189 0.022346 0)
(-0.0630857 0.0206945 0)
(-0.103008 0.0192128 0)
(-0.137834 0.0167875 0)
(-0.162302 0.01419 0)
(-0.18259 0.0114021 0)
(-0.197729 0.00870955 0)
(-0.209708 0.00650702 0)
(-0.218261 0.00463434 0)
(-0.2247 0.00302454 0)
(-0.228699 0.00152765 0)
(-0.231002 -6.92108e-06 0)
(-0.231371 -0.0018848 0)
(-0.229694 -0.00403019 0)
(-0.224392 -0.00702093 0)
(-0.212531 -0.0114455 0)
(-0.190015 -0.0185862 0)
(-0.152679 -0.0294413 0)
(-0.0983864 -0.0432559 0)
(-0.0484419 -0.0491172 0)
(-0.0259411 0.0609291 0)
(-0.0531239 0.0569948 0)
(-0.0861062 0.0511969 0)
(-0.113127 0.0423436 0)
(-0.132122 0.0334243 0)
(-0.147057 0.0259102 0)
(-0.157147 0.0197944 0)
(-0.164845 0.0148572 0)
(-0.170189 0.0108196 0)
(-0.174408 0.00752447 0)
(-0.177242 0.00446242 0)
(-0.179253 0.00114948 0)
(-0.180376 -0.00283699 0)
(-0.180101 -0.00787751 0)
(-0.177217 -0.0147019 0)
(-0.169834 -0.0250836 0)
(-0.154176 -0.0418519 0)
(-0.125997 -0.0681051 0)
(-0.0790562 -0.102798 0)
(-0.0434477 -0.119184 0)
(-0.0194624 0.092631 0)
(-0.0377544 0.0859284 0)
(-0.0605369 0.0758532 0)
(-0.0772235 0.062234 0)
(-0.0885379 0.0487919 0)
(-0.0968971 0.037089 0)
(-0.10248 0.027624 0)
(-0.106519 0.0203446 0)
(-0.109184 0.014718 0)
(-0.110958 0.0102578 0)
(-0.112143 0.00634982 0)
(-0.112904 0.00235658 0)
(-0.113379 -0.00241066 0)
(-0.113423 -0.00852605 0)
(-0.112831 -0.0172783 0)
(-0.11019 -0.0309131 0)
(-0.10324 -0.0527954 0)
(-0.0873728 -0.0891107 0)
(-0.0662618 -0.1393 0)
(-0.0180556 -0.175675 0)
(-0.0113642 0.112902 0)
(-0.0211701 0.105295 0)
(-0.0347117 0.0909507 0)
(-0.0433144 0.0736864 0)
(-0.0491526 0.0569139 0)
(-0.0533576 0.0426302 0)
(-0.0561715 0.0312913 0)
(-0.0580363 0.022636 0)
(-0.059106 0.0161185 0)
(-0.0596224 0.0110964 0)
(-0.059765 0.00680648 0)
(-0.0596826 0.00254491 0)
(-0.0594584 -0.00245338 0)
(-0.0589909 -0.00905419 0)
(-0.0584192 -0.017984 0)
(-0.0575508 -0.0314727 0)
(-0.0558656 -0.0536623 0)
(-0.0454584 -0.0945628 0)
(-0.0489024 -0.155835 0)
(-0.00577009 -0.213932 0)
(-0.00510348 0.124582 0)
(-0.0054202 0.114348 0)
(-0.0105759 0.0975513 0)
(-0.0122058 0.0785298 0)
(-0.0133356 0.0603559 0)
(-0.0142303 0.0449648 0)
(-0.0149067 0.0327732 0)
(-0.0154079 0.0235249 0)
(-0.0157338 0.0165839 0)
(-0.0159798 0.0112424 0)
(-0.016197 0.00677232 0)
(-0.0164658 0.00243341 0)
(-0.0169046 -0.00253525 0)
(-0.0174774 -0.00911959 0)
(-0.0181831 -0.0185411 0)
(-0.01878 -0.033069 0)
(-0.0221492 -0.0558308 0)
(-0.0121343 -0.0973421 0)
(-0.0317038 -0.16087 0)
(0.00870429 -0.240131 0)
(0.00283242 0.123768 0)
(0.00930695 0.115996 0)
(0.0120631 0.0982268 0)
(0.0165914 0.0787432 0)
(0.0200651 0.0604391 0)
(0.0223523 0.0450252 0)
(0.0236052 0.0328852 0)
(0.0241217 0.0236627 0)
(0.0241262 0.016761 0)
(0.0237661 0.0115156 0)
(0.0230842 0.00723072 0)
(0.0220783 0.00314492 0)
(0.0206238 -0.00149636 0)
(0.0187365 -0.00771241 0)
(0.0160025 -0.0165628 0)
(0.0136694 -0.0306695 0)
(0.00513495 -0.0534536 0)
(0.0134904 -0.0944237 0)
(-0.0188795 -0.163182 0)
(0.0179291 -0.252711 0)
(0.00724803 0.113519 0)
(0.0208091 0.106951 0)
(0.0324222 0.0895425 0)
(0.0435409 0.0710506 0)
(0.0517464 0.0548157 0)
(0.0570931 0.0414665 0)
(0.0601578 0.0308759 0)
(0.0616192 0.0227492 0)
(0.0619913 0.0166181 0)
(0.0616162 0.0119283 0)
(0.0606343 0.00811053 0)
(0.0591341 0.00451627 0)
(0.0568609 0.000533452 0)
(0.0540676 -0.00500138 0)
(0.0494965 -0.0126767 0)
(0.0454981 -0.0255562 0)
(0.0330766 -0.0468942 0)
(0.0375371 -0.0860967 0)
(-0.00636488 -0.15576 0)
(0.0323444 -0.25128 0)
(0.0111275 0.100807 0)
(0.0294185 0.0933702 0)
(0.0515597 0.0793636 0)
(0.0685592 0.065367 0)
(0.0813841 0.0519516 0)
(0.0904274 0.0402657 0)
(0.0961024 0.0308601 0)
(0.0993166 0.023624 0)
(0.100764 0.018169 0)
(0.101092 0.0139666 0)
(0.100426 0.0105726 0)
(0.0992654 0.00746718 0)
(0.0968065 0.00418734 0)
(0.0945622 -0.000233682 0)
(0.088831 -0.00634227 0)
(0.0846371 -0.0178718 0)
(0.0691238 -0.035335 0)
(0.0680461 -0.0728756 0)
(0.0129567 -0.136043 0)
(0.0499807 -0.223217 0)
(0.0155059 0.051173 0)
(0.0309215 0.0419935 0)
(0.0641121 0.0370141 0)
(0.0891385 0.0319428 0)
(0.109023 0.0265297 0)
(0.124148 0.0213787 0)
(0.135185 0.0169201 0)
(0.143277 0.0133515 0)
(0.14875 0.0107021 0)
(0.152813 0.00856661 0)
(0.15506 0.00691045 0)
(0.156979 0.00502749 0)
(0.156899 0.00337024 0)
(0.156781 -0.000214086 0)
(0.152258 -0.00320631 0)
(0.148956 -0.0116223 0)
(0.134328 -0.0215932 0)
(0.127078 -0.0503844 0)
(0.0655166 -0.0942426 0)
(0.090213 -0.164768 0)
(0.0636025 0.0988119 0)
(0.0773698 0.0639546 0)
(0.123478 0.0435561 0)
(0.158165 0.0340318 0)
(0.184867 0.0281379 0)
(0.206622 0.0237091 0)
(0.224276 0.020094 0)
(0.239212 0.0171854 0)
(0.251025 0.0147431 0)
(0.261217 0.012778 0)
(0.268851 0.0109593 0)
(0.275692 0.00943888 0)
(0.279958 0.00770963 0)
(0.283527 0.00611421 0)
(0.283618 0.0037237 0)
(0.280278 0.000510761 0)
(0.269742 -0.00134447 0)
(0.250867 -0.0117691 0)
(0.189098 -0.0225334 0)
(0.172727 -0.11742 0)
)
;

boundaryField
{
    movingWall
    {
        type            fixedValue;
        value           uniform (1 0 0);
    }
    movingWallBottom
    {
        type            fixedValue;
        value           uniform (1 0 0);
    }
    fixedWalls
    {
        type            noSlip;
    }
    frontAndBack
    {
        type            empty;
    }
}


// ************************************************************************* //
