/*--------------------------------*- C++ -*----------------------------------*\
| =========                 |                                                 |
| \\      /  F ield         | OpenFOAM: The Open Source CFD Toolbox           |
|  \\    /   O peration     | Version:  4.1                                   |
|   \\  /    A nd           | Web:      www.OpenFOAM.org                      |
|    \\/     M anipulation  |                                                 |
\*---------------------------------------------------------------------------*/
FoamFile
{
    version     2.0;
    format      ascii;
    class       volScalarField;
    location    "10";
    object      epsilon;
}
// * * * * * * * * * * * * * * * * * * * * * * * * * * * * * * * * * * * * * //

dimensions      [0 2 -3 0 0 0 0];

internalField   nonuniform List<scalar> 
400
(
0.0399575
0.0699917
0.0913392
0.102678
0.110367
0.11607
0.120807
0.124672
0.12803
0.130788
0.133299
0.135539
0.137831
0.140164
0.143293
0.146226
0.149718
0.154622
0.171022
0.148955
0.00975175
0.00801154
0.00867497
0.00959486
0.0105578
0.0116167
0.0128782
0.0143723
0.016017
0.0178319
0.0196588
0.0216624
0.0234039
0.0255712
0.0269326
0.030749
0.0359694
0.0485033
0.0748492
0.110517
0.0110405
0.00575031
0.00421698
0.00379213
0.00381521
0.00402857
0.00452496
0.00525258
0.00611276
0.00706815
0.00801487
0.00895605
0.009733
0.0104458
0.0108672
0.0117795
0.0134626
0.0195409
0.0368606
0.0811249
0.0120767
0.00511798
0.00358423
0.00324226
0.00332413
0.0036357
0.00418928
0.00485451
0.00554739
0.00619274
0.00670664
0.00703321
0.007143
0.00711918
0.00697567
0.0070729
0.00777653
0.0118112
0.0247467
0.0660606
0.0128734
0.00496123
0.00362223
0.0035227
0.00384223
0.0044211
0.00507497
0.00571862
0.0062563
0.00662415
0.00675754
0.006653
0.00631954
0.00582476
0.00529392
0.00507001
0.00556661
0.0090643
0.0200192
0.0570226
0.0132774
0.00507167
0.00413403
0.0041179
0.00468732
0.00541419
0.00612431
0.00670872
0.00705292
0.0071543
0.00695739
0.00649029
0.00581178
0.00503404
0.00436693
0.00411596
0.00480566
0.00821272
0.018998
0.0500468
0.0137401
0.00584429
0.00478771
0.00470346
0.00534887
0.00615437
0.00684409
0.00730363
0.00749076
0.00744114
0.00701247
0.00633627
0.00551647
0.0047076
0.00424837
0.00416253
0.00511516
0.00874247
0.0195809
0.0436886
0.0140184
0.00652529
0.00511624
0.00496523
0.00558966
0.00639306
0.00700473
0.00731015
0.00739837
0.00719835
0.00668794
0.00605188
0.00540789
0.00500809
0.00487529
0.00516599
0.00667557
0.0107721
0.0212263
0.0369188
0.0141085
0.00723225
0.00511939
0.00453091
0.00451832
0.00496687
0.00524411
0.00542013
0.00547897
0.00548438
0.00546608
0.0055012
0.00569712
0.00607488
0.00678164
0.00806542
0.010454
0.0147086
0.0211795
0.0285482
0.0141148
0.00757303
0.00486107
0.00375121
0.00343353
0.00337986
0.0034659
0.00366749
0.00393308
0.00430773
0.00477968
0.00540236
0.00619646
0.00724501
0.00863845
0.0105269
0.0130378
0.0159867
0.0174107
0.0158164
0.0140331
0.00753194
0.00483817
0.00374488
0.00343935
0.00339374
0.00350247
0.00370898
0.00397834
0.00433901
0.00479662
0.00539003
0.00615927
0.00716923
0.00853402
0.0104109
0.0129699
0.0162153
0.0178989
0.017057
0.0139381
0.00711673
0.0049738
0.00436652
0.00434426
0.0047994
0.00511667
0.00534789
0.005442
0.00545923
0.00542755
0.00541665
0.00551611
0.00580217
0.00637476
0.0075455
0.00981559
0.014143
0.0212428
0.0298043
0.0137886
0.00638477
0.00494078
0.00474754
0.00531907
0.00610174
0.00670509
0.0070202
0.00711613
0.0069558
0.006476
0.00586141
0.00521923
0.0047855
0.00463088
0.00486188
0.00629349
0.0102906
0.0208011
0.0374794
0.0134548
0.00570099
0.00460849
0.00450401
0.00510309
0.00587882
0.00653703
0.00697028
0.00714367
0.00710262
0.00670099
0.00606189
0.00528497
0.00451467
0.00407614
0.00399938
0.00492373
0.00847003
0.0192316
0.0440727
0.0130397
0.00493707
0.00398969
0.00395777
0.00449559
0.00518567
0.00585165
0.00639673
0.00672755
0.00682946
0.00665309
0.0062241
0.00559522
0.00486893
0.00423953
0.00400198
0.00468124
0.00802576
0.0186913
0.0502226
0.0126651
0.00486416
0.00350907
0.00340083
0.00369931
0.00424676
0.00485854
0.00546069
0.00597025
0.00632628
0.00646711
0.00638546
0.00609409
0.00564398
0.00515667
0.00496784
0.00546925
0.00891461
0.0197453
0.0570742
0.0119136
0.00502975
0.00350764
0.00315846
0.00322584
0.00350404
0.00401369
0.00463242
0.00528452
0.00590171
0.00640274
0.00673666
0.00687091
0.00687524
0.00677563
0.00689821
0.00761965
0.0116398
0.0246272
0.0659918
0.0108977
0.00567102
0.00414814
0.00371585
0.00372576
0.00390783
0.00435057
0.00502273
0.00582418
0.006729
0.00763467
0.0085551
0.00932566
0.0100557
0.0105017
0.0114581
0.0131697
0.019265
0.0366656
0.0810134
0.00965618
0.00794077
0.00859141
0.00947308
0.010388
0.011389
0.0125747
0.013992
0.0155502
0.0172895
0.019035
0.0209862
0.0226773
0.024828
0.0262161
0.0301136
0.0353901
0.0480188
0.0745589
0.110177
0.0399249
0.070037
0.0913265
0.102467
0.109952
0.115486
0.120067
0.123831
0.12709
0.129809
0.132258
0.1345
0.136766
0.139139
0.142289
0.145245
0.148784
0.153724
0.170232
0.148433
)
;

boundaryField
{
    movingWall
    {
        Cmu             0.09;
        kappa           0.41;
        E               9.8;
        type            epsilonWallFunction;
        value           nonuniform List<scalar> 
20
(
0.0399249
0.070037
0.0913265
0.102467
0.109952
0.115486
0.120067
0.123831
0.12709
0.129809
0.132258
0.1345
0.136766
0.139139
0.142289
0.145245
0.148784
0.153724
0.170232
0.148433
)
;
    }
    movingWallBottom
    {
        Cmu             0.09;
        kappa           0.41;
        E               9.8;
        type            epsilonWallFunction;
        value           nonuniform List<scalar> 
20
(
0.0399575
0.0699917
0.0913392
0.102678
0.110367
0.11607
0.120807
0.124672
0.12803
0.130788
0.133299
0.135539
0.137831
0.140164
0.143293
0.146226
0.149718
0.154622
0.171022
0.148955
)
;
    }
    fixedWalls
    {
        Cmu             0.09;
        kappa           0.41;
        E               9.8;
        type            epsilonWallFunction;
        value           nonuniform List<scalar> 
40
(
0.0399575
0.00975175
0.0110405
0.0120767
0.0128734
0.0132774
0.0137401
0.0140184
0.0141085
0.0141148
0.0140331
0.0139381
0.0137886
0.0134548
0.0130397
0.0126651
0.0119136
0.0108977
0.00965618
0.0399249
0.148955
0.110517
0.0811249
0.0660606
0.0570226
0.0500468
0.0436886
0.0369188
0.0285482
0.0158164
0.017057
0.0298043
0.0374794
0.0440727
0.0502226
0.0570742
0.0659918
0.0810134
0.110177
0.148433
)
;
    }
    frontAndBack
    {
        type            empty;
    }
}


// ************************************************************************* //
