/*--------------------------------*- C++ -*----------------------------------*\
| =========                 |                                                 |
| \\      /  F ield         | OpenFOAM: The Open Source CFD Toolbox           |
|  \\    /   O peration     | Version:  4.1                                   |
|   \\  /    A nd           | Web:      www.OpenFOAM.org                      |
|    \\/     M anipulation  |                                                 |
\*---------------------------------------------------------------------------*/
FoamFile
{
    version     2.0;
    format      ascii;
    class       volScalarField;
    location    "10";
    object      k;
}
// * * * * * * * * * * * * * * * * * * * * * * * * * * * * * * * * * * * * * //

dimensions      [0 2 -2 0 0 0 0];

internalField   nonuniform List<scalar> 
400
(
0.0039606
0.00575518
0.00687279
0.00743042
0.00779689
0.00806327
0.00828118
0.00845686
0.00860804
0.00873125
0.00884262
0.00894141
0.00904194
0.00914368
0.00927927
0.00940545
0.00955463
0.00976212
0.0104407
0.0095221
0.00154677
0.0016731
0.00195138
0.00212197
0.00223736
0.00235981
0.00250999
0.00269503
0.00290689
0.00314303
0.00338438
0.00362968
0.0038398
0.00405147
0.00414972
0.00435147
0.00452873
0.00506263
0.00643467
0.00780396
0.00168021
0.00165444
0.00177897
0.00187621
0.00195306
0.00207839
0.00225866
0.00248691
0.00274281
0.00300405
0.00323913
0.00342573
0.00354559
0.00355566
0.00350031
0.00338467
0.00316619
0.00335147
0.00429026
0.00635035
0.00178377
0.00169059
0.00177574
0.00189723
0.00208822
0.00234826
0.00264639
0.00295308
0.00323415
0.00346054
0.00360557
0.00364765
0.00360357
0.00346982
0.00322028
0.00294418
0.00264009
0.00276323
0.00349329
0.00553762
0.0018614
0.00191301
0.00200312
0.00213693
0.00239004
0.00271185
0.0030547
0.0033728
0.00361763
0.00376624
0.00380254
0.00373281
0.00354548
0.00325907
0.00289763
0.00255423
0.0022965
0.00247531
0.00318066
0.00502025
0.00190014
0.00211152
0.00216152
0.00230564
0.00262076
0.00298559
0.00332655
0.00360163
0.00378822
0.0038572
0.0037966
0.00360388
0.00329948
0.00291453
0.00249855
0.00215901
0.00201218
0.00222215
0.00297467
0.00460197
0.00194404
0.00234891
0.00231211
0.00238397
0.00271941
0.00309142
0.0034087
0.00361635
0.00369744
0.00367651
0.00351144
0.00323378
0.00286947
0.00245676
0.00204444
0.0018335
0.00177917
0.00209574
0.00290737
0.00420343
0.0019702
0.00257931
0.00237382
0.00236611
0.00260962
0.00289552
0.00309474
0.00318369
0.00319689
0.00307057
0.0028408
0.00254769
0.00223068
0.00193997
0.00179394
0.00174114
0.00179905
0.00217463
0.00292907
0.00375712
0.00197864
0.00276158
0.00215853
0.00196373
0.00195612
0.00205806
0.00210038
0.00211017
0.0020473
0.00195023
0.00184879
0.00176106
0.00171782
0.0017027
0.00173657
0.00184468
0.00206448
0.00246914
0.00289152
0.00316519
0.00197922
0.00289212
0.00201093
0.00159407
0.0014362
0.0013743
0.00134749
0.00133941
0.00134526
0.00138176
0.00143181
0.00150962
0.00160764
0.00173506
0.00189568
0.00210164
0.00233684
0.00251479
0.00257794
0.00213508
0.00197153
0.00287496
0.00199849
0.00158904
0.00143872
0.0013837
0.00136161
0.00135598
0.00136644
0.00139576
0.00144367
0.00151225
0.00160621
0.00172497
0.00188043
0.00208642
0.00233176
0.00254166
0.00262596
0.00224554
0.00196262
0.0027167
0.00209213
0.00188863
0.00187954
0.00200451
0.00206459
0.0020875
0.00206986
0.00197584
0.00188369
0.00178088
0.00172041
0.00169473
0.00169393
0.00179374
0.00198581
0.00241287
0.00288943
0.00325757
0.00194855
0.00252009
0.00228105
0.00226154
0.00249375
0.00278418
0.00299917
0.00310329
0.00312897
0.00303507
0.00282822
0.00254912
0.00223821
0.00193875
0.0017755
0.00171609
0.00176306
0.00213363
0.0029044
0.00379514
0.00191696
0.00228743
0.00222377
0.00227831
0.00260217
0.00296819
0.00328314
0.00349478
0.00358099
0.00357614
0.00342857
0.0031694
0.00282426
0.00242842
0.00202895
0.00181389
0.00175712
0.00206675
0.00287995
0.00422809
0.00187733
0.0020539
0.00208142
0.00220742
0.0025117
0.00286796
0.00320111
0.00347083
0.00365701
0.00373348
0.00368629
0.00351119
0.00322728
0.00286236
0.00246517
0.00213883
0.00199587
0.00220432
0.00295063
0.00461277
0.0018412
0.00186562
0.00193411
0.00205501
0.00229795
0.00260784
0.00293795
0.00324575
0.00348708
0.00363784
0.003682
0.00362441
0.00345446
0.0031878
0.00284408
0.00251592
0.00226369
0.00243695
0.00314583
0.00502329
0.00176762
0.00165112
0.00172555
0.00183161
0.0020105
0.00225834
0.00254332
0.00283793
0.00311043
0.00333322
0.00348013
0.00353054
0.00349452
0.00337755
0.00314305
0.00288295
0.0025897
0.00271676
0.00346317
0.00553377
0.00166565
0.00162571
0.00173783
0.00183258
0.00190213
0.00201541
0.00218068
0.00239241
0.00263265
0.00288206
0.00310988
0.00329586
0.0034185
0.00344162
0.00339385
0.00329262
0.00309254
0.00328713
0.00425687
0.00634451
0.00153661
0.00165287
0.00192057
0.00208538
0.00219393
0.00230719
0.00244611
0.00261846
0.00281622
0.00303912
0.00326751
0.00350452
0.0037077
0.00392001
0.00402255
0.0042365
0.0044301
0.00499142
0.00640828
0.0077879
0.00395843
0.00575766
0.00687214
0.00742021
0.00777727
0.0080361
0.00824723
0.00841868
0.00856575
0.00868749
0.00879641
0.00889555
0.00899515
0.00909892
0.00923576
0.0093632
0.00951472
0.00972416
0.0104084
0.00949976
)
;

boundaryField
{
    movingWall
    {
        type            kqRWallFunction;
        value           nonuniform List<scalar> 
20
(
0.00395843
0.00575766
0.00687214
0.00742021
0.00777727
0.0080361
0.00824723
0.00841868
0.00856575
0.00868749
0.00879641
0.00889555
0.00899515
0.00909892
0.00923576
0.0093632
0.00951472
0.00972416
0.0104084
0.00949976
)
;
    }
    movingWallBottom
    {
        type            kqRWallFunction;
        value           nonuniform List<scalar> 
20
(
0.0039606
0.00575518
0.00687279
0.00743042
0.00779689
0.00806327
0.00828118
0.00845686
0.00860804
0.00873125
0.00884262
0.00894141
0.00904194
0.00914368
0.00927927
0.00940545
0.00955463
0.00976212
0.0104407
0.0095221
)
;
    }
    fixedWalls
    {
        type            kqRWallFunction;
        value           nonuniform List<scalar> 
40
(
0.0039606
0.00154677
0.00168021
0.00178377
0.0018614
0.00190014
0.00194404
0.0019702
0.00197864
0.00197922
0.00197153
0.00196262
0.00194855
0.00191696
0.00187733
0.0018412
0.00176762
0.00166565
0.00153661
0.00395843
0.0095221
0.00780396
0.00635035
0.00553762
0.00502025
0.00460197
0.00420343
0.00375712
0.00316519
0.00213508
0.00224554
0.00325757
0.00379514
0.00422809
0.00461277
0.00502329
0.00553377
0.00634451
0.0077879
0.00949976
)
;
    }
    frontAndBack
    {
        type            empty;
    }
}


// ************************************************************************* //
