/*--------------------------------*- C++ -*----------------------------------*\
| =========                 |                                                 |
| \\      /  F ield         | OpenFOAM: The Open Source CFD Toolbox           |
|  \\    /   O peration     | Version:  4.1                                   |
|   \\  /    A nd           | Web:      www.OpenFOAM.org                      |
|    \\/     M anipulation  |                                                 |
\*---------------------------------------------------------------------------*/
FoamFile
{
    version     2.0;
    format      ascii;
    class       volScalarField;
    location    "10";
    object      nut;
}
// * * * * * * * * * * * * * * * * * * * * * * * * * * * * * * * * * * * * * //

dimensions      [0 2 -1 0 0 0 0];

internalField   nonuniform List<scalar> 
400
(
3.53319e-05
4.25906e-05
4.65427e-05
4.83941e-05
4.95733e-05
5.04131e-05
5.10898e-05
5.16289e-05
5.20883e-05
5.24598e-05
5.27933e-05
5.30874e-05
5.3385e-05
5.36845e-05
5.4081e-05
5.44475e-05
5.48775e-05
5.54702e-05
5.73657e-05
5.47839e-05
2.20805e-05
3.14462e-05
3.95056e-05
4.2236e-05
4.26718e-05
4.31435e-05
4.40283e-05
4.54824e-05
4.74808e-05
4.98589e-05
5.24376e-05
5.47361e-05
5.66986e-05
5.77717e-05
5.75442e-05
5.54223e-05
5.13171e-05
4.7558e-05
4.9786e-05
4.95957e-05
2.30136e-05
4.28402e-05
6.75428e-05
8.35453e-05
8.99822e-05
9.65043e-05
0.000101468
0.000105972
0.000110763
0.000114908
0.000117816
0.000117932
0.000116245
0.000108928
0.00010147
8.75283e-05
6.70174e-05
5.17331e-05
4.49415e-05
4.47388e-05
2.37122e-05
5.02598e-05
7.9178e-05
9.99161e-05
0.000118064
0.000136505
0.000150457
0.000161676
0.000169697
0.00017404
0.000174455
0.000170261
0.000163617
0.000152204
0.000133797
0.000110299
8.06668e-05
5.81814e-05
4.43806e-05
4.17779e-05
2.42229e-05
6.63875e-05
9.96968e-05
0.000116666
0.000133804
0.000149707
0.00016548
0.000179033
0.000188267
0.00019272
0.000192576
0.000188493
0.000179022
0.000164116
0.000142741
0.000115812
8.52676e-05
6.08369e-05
4.54811e-05
3.97783e-05
2.44738e-05
7.91189e-05
0.000101716
0.000116185
0.000131878
0.000148173
0.00016262
0.000174021
0.000183124
0.000187163
0.00018646
0.000180103
0.000168588
0.000151867
0.00012866
0.000101925
7.58268e-05
5.41128e-05
4.19189e-05
3.80851e-05
2.4755e-05
8.49658e-05
0.000100492
0.000108749
0.000124432
0.000139757
0.000152793
0.000161155
0.000164255
0.000163484
0.000158249
0.000148536
0.000134333
0.00011539
8.85459e-05
7.26857e-05
5.5695e-05
4.52151e-05
3.88518e-05
3.63984e-05
2.4921e-05
9.17589e-05
9.91257e-05
0.000101478
0.000109651
0.000118029
0.000123055
0.000124789
0.000124326
0.000117882
0.0001086
9.6526e-05
8.28111e-05
6.76332e-05
5.94097e-05
5.28149e-05
4.36358e-05
3.95105e-05
3.63772e-05
3.44116e-05
2.49743e-05
9.49037e-05
8.19104e-05
7.65982e-05
7.62175e-05
7.67494e-05
7.57121e-05
7.39383e-05
6.88502e-05
6.24147e-05
5.62786e-05
5.07382e-05
4.66169e-05
4.29519e-05
4.00215e-05
3.79715e-05
3.66929e-05
3.73045e-05
3.55288e-05
3.15838e-05
2.49778e-05
9.94041e-05
7.48698e-05
6.09653e-05
5.40669e-05
5.0293e-05
4.71496e-05
4.40254e-05
4.14118e-05
3.98894e-05
3.86025e-05
3.79661e-05
3.75387e-05
3.73965e-05
3.74401e-05
3.77625e-05
3.76959e-05
3.56032e-05
3.43534e-05
2.59395e-05
2.49286e-05
9.8764e-05
7.42957e-05
6.06844e-05
5.41649e-05
5.0775e-05
4.76405e-05
4.46164e-05
4.22399e-05
4.04085e-05
3.91062e-05
3.81854e-05
3.7698e-05
3.73535e-05
3.72909e-05
3.76324e-05
3.77287e-05
3.58553e-05
3.4673e-05
2.66061e-05
2.48719e-05
9.33354e-05
7.92013e-05
7.35191e-05
7.3186e-05
7.53479e-05
7.49757e-05
7.33351e-05
7.08544e-05
6.43598e-05
5.88383e-05
5.26965e-05
4.8292e-05
4.45504e-05
4.05106e-05
3.83773e-05
3.61579e-05
3.70484e-05
3.53717e-05
3.20443e-05
2.47825e-05
8.95218e-05
9.478e-05
9.69578e-05
0.000105224
0.000114336
0.000120737
0.000123464
0.000123823
0.000119188
0.000111164
9.97748e-05
8.63846e-05
7.06901e-05
6.12662e-05
5.4515e-05
4.44514e-05
3.98146e-05
3.6498e-05
3.45865e-05
2.45805e-05
8.26017e-05
9.65748e-05
0.000103721
0.000119421
0.000134876
0.000148403
0.0001577
0.000161558
0.000162052
0.00015788
0.000149138
0.000135834
0.000117561
9.08945e-05
7.40412e-05
5.64353e-05
4.53873e-05
3.88147e-05
3.65058e-05
2.43251e-05
7.6901e-05
9.7729e-05
0.000110805
0.000126297
0.000142752
0.000157603
0.000169492
0.000178912
0.00018369
0.000183822
0.000178269
0.000167533
0.000151446
0.000129009
0.000102878
7.65858e-05
5.44885e-05
4.19211e-05
3.81301e-05
2.40899e-05
6.43991e-05
9.59429e-05
0.000111759
0.000128471
0.000144128
0.000159891
0.000173631
0.000183304
0.00018827
0.000188669
0.000185151
0.000176235
0.000162047
0.000141175
0.000114675
8.43237e-05
5.99562e-05
4.51075e-05
3.97905e-05
2.36036e-05
4.87812e-05
7.63982e-05
9.55942e-05
0.000112774
0.000130994
0.000145044
0.000156473
0.00016477
0.000169431
0.000170242
0.000166525
0.000159957
0.000149334
0.000131218
0.000108438
7.92148e-05
5.7069e-05
4.38305e-05
4.17633e-05
2.29127e-05
4.19439e-05
6.55248e-05
8.13414e-05
8.73994e-05
9.35478e-05
9.83738e-05
0.000102559
0.000107101
0.000111096
0.000114009
0.000114276
0.000112781
0.000106012
9.87115e-05
8.51556e-05
6.53576e-05
5.04786e-05
4.44799e-05
4.4718e-05
2.20073e-05
3.09639e-05
3.86401e-05
4.13162e-05
4.17016e-05
4.20651e-05
4.28249e-05
4.41018e-05
4.59028e-05
4.80791e-05
5.04804e-05
5.26703e-05
5.45581e-05
5.57025e-05
5.55492e-05
5.36407e-05
4.99099e-05
4.66959e-05
4.95707e-05
4.95442e-05
3.5322e-05
4.25997e-05
4.65403e-05
4.83604e-05
4.95102e-05
5.03272e-05
5.09839e-05
5.15111e-05
5.1959e-05
5.23269e-05
5.26539e-05
5.29498e-05
5.32454e-05
5.35517e-05
5.39529e-05
5.43239e-05
5.47618e-05
5.53612e-05
5.72761e-05
5.4719e-05
)
;

boundaryField
{
    movingWall
    {
        type            nutkWallFunction;
        Cmu             0.09;
        kappa           0.41;
        E               9.8;
        value           nonuniform List<scalar> 
20
(
0
0
0
1.81021e-07
3.71789e-07
5.06937e-07
6.15326e-07
7.02178e-07
7.75866e-07
8.36312e-07
8.89981e-07
9.38503e-07
9.86931e-07
1.03706e-06
1.10267e-06
1.16327e-06
1.2347e-06
1.33236e-06
1.64328e-06
1.22768e-06
)
;
    }
    movingWallBottom
    {
        type            nutkWallFunction;
        Cmu             0.09;
        kappa           0.41;
        E               9.8;
        value           nonuniform List<scalar> 
20
(
0
0
0
1.86549e-07
3.82125e-07
5.20975e-07
6.32606e-07
7.21378e-07
7.96918e-07
8.57921e-07
9.12639e-07
9.60838e-07
1.00958e-06
1.05859e-06
1.12341e-06
1.18325e-06
1.2534e-06
1.34994e-06
1.65766e-06
1.23816e-06
)
;
    }
    fixedWalls
    {
        type            nutkWallFunction;
        Cmu             0.09;
        kappa           0.41;
        E               9.8;
        value           nonuniform List<scalar> 
40
(
0
0
0
0
0
0
0
0
0
0
0
0
0
0
0
0
0
0
0
0
1.23816e-06
3.85845e-07
0
0
0
0
0
0
0
0
0
0
0
0
0
0
0
0
3.7739e-07
1.22768e-06
)
;
    }
    frontAndBack
    {
        type            empty;
    }
}


// ************************************************************************* //
