/*--------------------------------*- C++ -*----------------------------------*\
| =========                 |                                                 |
| \\      /  F ield         | OpenFOAM: The Open Source CFD Toolbox           |
|  \\    /   O peration     | Version:  4.1                                   |
|   \\  /    A nd           | Web:      www.OpenFOAM.org                      |
|    \\/     M anipulation  |                                                 |
\*---------------------------------------------------------------------------*/
FoamFile
{
    version     2.0;
    format      ascii;
    class       volScalarField;
    location    "10";
    object      p;
}
// * * * * * * * * * * * * * * * * * * * * * * * * * * * * * * * * * * * * * //

dimensions      [0 2 -2 0 0 0 0];

internalField   nonuniform List<scalar> 
400
(
-2.23133e-08
0.000380518
-0.00363114
-0.00749352
-0.0108196
-0.0136482
-0.0160239
-0.0179568
-0.0194703
-0.0206036
-0.0214
-0.021864
-0.0219485
-0.0215302
-0.0203996
-0.0181403
-0.0133883
-0.00499991
0.00809192
0.0286715
-0.00603278
-0.0055647
-0.00732468
-0.00984438
-0.012571
-0.0151032
-0.0172608
-0.0190022
-0.0203575
-0.0213796
-0.0221154
-0.0225765
-0.0227368
-0.0224861
-0.0215787
-0.0196521
-0.0163835
-0.0107555
-0.00261247
0.0162375
-0.00682711
-0.00729272
-0.00900064
-0.0113445
-0.0138277
-0.0160838
-0.0179659
-0.0194728
-0.020657
-0.0215669
-0.0222363
-0.0226596
-0.0228226
-0.0226253
-0.0220496
-0.0207065
-0.0185617
-0.0148567
-0.011046
-8.94206e-05
-0.0081724
-0.00908409
-0.010849
-0.0131264
-0.0153794
-0.0173418
-0.0189399
-0.0202037
-0.0211921
-0.0219521
-0.0225135
-0.0228825
-0.0230455
-0.0229352
-0.022491
-0.021519
-0.0200895
-0.0172855
-0.0158891
-0.00951111
-0.00861242
-0.00990987
-0.0117695
-0.014035
-0.0161951
-0.0180355
-0.0195071
-0.0206457
-0.0215161
-0.0221749
-0.022658
-0.0229775
-0.0231195
-0.0230328
-0.0226556
-0.0218768
-0.0208264
-0.0182433
-0.0172953
-0.0123447
-0.00783092
-0.00956217
-0.0116347
-0.0140415
-0.0162866
-0.0181741
-0.0196647
-0.0207957
-0.021635
-0.0222458
-0.0226743
-0.0229384
-0.0230255
-0.0228867
-0.0224557
-0.0216543
-0.0204279
-0.0179178
-0.0157216
-0.0108537
-0.00588544
-0.00793693
-0.0103468
-0.0130493
-0.0155808
-0.0177009
-0.0193566
-0.0205891
-0.0214773
-0.022089
-0.0224778
-0.022671
-0.0226542
-0.0223741
-0.0217767
-0.0207143
-0.0188628
-0.0157031
-0.0117665
-0.00658919
-0.0030239
-0.00540447
-0.00817271
-0.0112611
-0.0142029
-0.0166824
-0.018615
-0.0200321
-0.0210189
-0.0216551
-0.0220055
-0.022099
-0.0219254
-0.0214432
-0.0205347
-0.0188916
-0.015998
-0.0114593
-0.00563568
-0.00031243
-6.40386e-05
-0.00261152
-0.00564214
-0.00906592
-0.012403
-0.0152805
-0.0175547
-0.0192162
-0.0203494
-0.0210502
-0.0213865
-0.021387
-0.021054
-0.0203173
-0.0189122
-0.0163676
-0.0120946
-0.00580114
0.00204519
0.0064771
0.00188676
-0.000733639
-0.00390214
-0.00755871
-0.0111542
-0.0142428
-0.0167038
-0.0185387
-0.0198156
-0.0206003
-0.0209405
-0.0208591
-0.0203932
-0.0194133
-0.0175361
-0.0141586
-0.00867754
-0.00105629
0.00727007
0.0113284
0.00184727
-0.000758037
-0.0039227
-0.00758896
-0.011205
-0.0143083
-0.016781
-0.0186254
-0.0199062
-0.0206932
-0.0210419
-0.0209868
-0.0205281
-0.0195404
-0.0176893
-0.0143619
-0.00895592
-0.00142479
0.00683029
0.0109085
-0.000130455
-0.00264506
-0.0056683
-0.00911694
-0.0124952
-0.0154145
-0.0177329
-0.0194338
-0.0205986
-0.0213163
-0.0216582
-0.0216606
-0.0213303
-0.0205987
-0.0192275
-0.016759
-0.0126189
-0.00651363
0.00109323
0.00557747
-0.00307607
-0.00542146
-0.00818747
-0.0113117
-0.0143102
-0.0168533
-0.0188443
-0.0203055
-0.0213258
-0.0219809
-0.0223364
-0.0224265
-0.0222451
-0.0217537
-0.0208472
-0.0192454
-0.0164583
-0.0120878
-0.00651513
-0.00124874
-0.00589961
-0.00792562
-0.0103441
-0.013095
-0.0156946
-0.017885
-0.0196018
-0.0208789
-0.0217946
-0.022418
-0.0228048
-0.0229836
-0.0229453
-0.0226463
-0.022034
-0.0209785
-0.0191879
-0.016125
-0.0123847
-0.00732696
-0.00780031
-0.00951399
-0.0116055
-0.0140679
-0.0163856
-0.0183464
-0.0199001
-0.021077
-0.0219429
-0.0225622
-0.0229841
-0.0232284
-0.0232878
-0.0231188
-0.0226601
-0.0218395
-0.0206305
-0.0181401
-0.0161
-0.0113301
-0.00853771
-0.00982393
-0.011707
-0.0140261
-0.016259
-0.0181755
-0.0197136
-0.0209012
-0.0218
-0.0224675
-0.0229431
-0.0232409
-0.0233526
-0.0232289
-0.0228153
-0.022005
-0.0209279
-0.0183424
-0.0174973
-0.012569
-0.00806329
-0.00896526
-0.0107479
-0.0130751
-0.0153995
-0.017439
-0.0191062
-0.0204217
-0.0214416
-0.0222137
-0.0227701
-0.0231191
-0.0232515
-0.0230983
-0.0226101
-0.0215919
-0.0201205
-0.0173048
-0.0159151
-0.00955642
-0.00670208
-0.00715059
-0.00887086
-0.0112568
-0.0138027
-0.0161317
-0.0180833
-0.0196457
-0.0208668
-0.0217934
-0.0224614
-0.0228661
-0.0229973
-0.0227586
-0.0221358
-0.0207374
-0.01854
-0.0148015
-0.0109506
1.31126e-05
-0.00591359
-0.00541814
-0.00717161
-0.00972042
-0.0125014
-0.0151026
-0.0173317
-0.0191359
-0.0205376
-0.0215852
-0.0223265
-0.0227741
-0.0229046
-0.0226092
-0.0216417
-0.019649
-0.0163136
-0.0106263
-0.00241601
0.0164568
9.6705e-05
0.000498062
-0.00349412
-0.00737468
-0.0107494
-0.0136447
-0.016091
-0.0180868
-0.0196467
-0.0208059
-0.0216062
-0.0220544
-0.022105
-0.0216388
-0.0204462
-0.018115
-0.0132796
-0.0048128
0.00835047
0.0289705
)
;

boundaryField
{
    movingWall
    {
        type            zeroGradient;
    }
    movingWallBottom
    {
        type            zeroGradient;
    }
    fixedWalls
    {
        type            zeroGradient;
    }
    frontAndBack
    {
        type            empty;
    }
}


// ************************************************************************* //
