/*--------------------------------*- C++ -*----------------------------------*\
| =========                 |                                                 |
| \\      /  F ield         | OpenFOAM: The Open Source CFD Toolbox           |
|  \\    /   O peration     | Version:  4.1                                   |
|   \\  /    A nd           | Web:      www.OpenFOAM.org                      |
|    \\/     M anipulation  |                                                 |
\*---------------------------------------------------------------------------*/
FoamFile
{
    version     2.0;
    format      ascii;
    class       surfaceScalarField;
    location    "10";
    object      phi;
}
// * * * * * * * * * * * * * * * * * * * * * * * * * * * * * * * * * * * * * //

dimensions      [0 3 -1 0 0 0 0];

internalField   nonuniform List<scalar> 
760
(
3.21585e-06
-3.21585e-06
5.42892e-06
-2.21307e-06
7.13598e-06
-1.70706e-06
8.5687e-06
-1.43272e-06
9.76599e-06
-1.19729e-06
1.07487e-05
-9.82717e-07
1.15481e-05
-7.99361e-07
1.2203e-05
-6.54902e-07
1.27456e-05
-5.42579e-07
1.31988e-05
-4.53225e-07
1.35744e-05
-3.75603e-07
1.38737e-05
-2.99274e-07
1.4094e-05
-2.20333e-07
1.4201e-05
-1.07046e-07
1.41955e-05
5.5146e-09
1.38482e-05
3.47325e-07
1.31207e-05
7.27509e-07
1.12283e-05
1.8924e-06
7.72802e-06
3.50027e-06
7.72802e-06
1.02387e-06
-4.23971e-06
2.52234e-06
-3.71154e-06
3.91133e-06
-3.09606e-06
5.00596e-06
-2.52735e-06
5.82679e-06
-2.01811e-06
6.43322e-06
-1.58915e-06
6.87857e-06
-1.24471e-06
7.20132e-06
-9.77648e-07
7.43442e-06
-7.75679e-07
7.5984e-06
-6.17207e-07
7.71296e-06
-4.90164e-07
7.78017e-06
-3.66481e-07
7.80092e-06
-2.41084e-07
7.71083e-06
-1.6959e-08
7.52555e-06
1.90798e-07
7.17924e-06
6.93631e-07
6.52394e-06
1.38282e-06
5.34567e-06
3.07067e-06
2.92926e-06
5.91667e-06
1.06573e-05
9.43023e-07
-5.18273e-06
2.08955e-06
-4.85807e-06
3.04294e-06
-4.04945e-06
3.75112e-06
-3.23554e-06
4.24657e-06
-2.51356e-06
4.57385e-06
-1.91644e-06
4.7738e-06
-1.44466e-06
4.8821e-06
-1.08594e-06
4.92503e-06
-8.18617e-07
4.92351e-06
-6.15685e-07
4.88484e-06
-4.51487e-07
4.81434e-06
-2.95986e-07
4.69725e-06
-1.23992e-07
4.55662e-06
1.23668e-07
4.27936e-06
4.68056e-07
3.89469e-06
1.0783e-06
3.22995e-06
2.04756e-06
2.39563e-06
3.90499e-06
1.08643e-06
7.22587e-06
1.17437e-05
7.00815e-07
-5.88355e-06
1.35538e-06
-5.51263e-06
1.92377e-06
-4.61784e-06
2.35633e-06
-3.6681e-06
2.65139e-06
-2.80862e-06
2.8328e-06
-2.09784e-06
2.93075e-06
-1.54262e-06
2.97033e-06
-1.12552e-06
2.96892e-06
-8.17208e-07
2.93809e-06
-5.84848e-07
2.88195e-06
-3.95356e-07
2.79982e-06
-2.13854e-07
2.68186e-06
-6.03083e-09
2.52219e-06
2.83335e-07
2.29182e-06
6.98431e-07
1.9934e-06
1.37672e-06
1.52861e-06
2.51236e-06
9.95882e-07
4.43771e-06
3.96537e-07
7.82521e-06
1.21402e-05
3.3754e-07
-6.22109e-06
5.27766e-07
-5.70285e-06
7.18331e-07
-4.8084e-06
8.78731e-07
-3.8285e-06
9.88762e-07
-2.91865e-06
1.05276e-06
-2.16184e-06
1.08201e-06
-1.57187e-06
1.08688e-06
-1.13038e-06
1.07427e-06
-8.04601e-07
1.04816e-06
-5.58739e-07
1.00888e-06
-3.5608e-07
9.53942e-07
-1.58913e-07
8.76791e-07
7.11198e-08
7.73039e-07
3.87088e-07
6.31547e-07
8.39922e-07
4.52152e-07
1.55612e-06
2.85948e-07
2.67856e-06
-1.14118e-07
4.83778e-06
-2.05567e-07
7.91666e-06
1.19347e-05
-2.23943e-07
-5.99715e-06
-4.26101e-07
-5.5007e-06
-5.7155e-07
-4.66295e-06
-6.77465e-07
-3.72259e-06
-7.61055e-07
-2.83506e-06
-8.25436e-07
-2.09746e-06
-8.72652e-07
-1.52465e-06
-9.05532e-07
-1.0975e-06
-9.28234e-07
-7.81898e-07
-9.44295e-07
-5.42678e-07
-9.58061e-07
-3.42315e-07
-9.74167e-07
-1.42807e-07
-9.97092e-07
9.4044e-08
-1.02421e-06
4.14208e-07
-1.05435e-06
8.70062e-07
-1.07524e-06
1.577e-06
-1.09577e-06
2.69909e-06
-1.02168e-06
4.76369e-06
-8.93284e-07
7.78826e-06
1.10414e-05
-7.25671e-07
-5.27148e-06
-1.41646e-06
-4.80991e-06
-1.93951e-06
-4.13991e-06
-2.33988e-06
-3.32222e-06
-2.63341e-06
-2.54153e-06
-2.84113e-06
-1.88974e-06
-2.98362e-06
-1.38216e-06
-3.07648e-06
-1.00465e-06
-3.13303e-06
-7.25344e-07
-3.16264e-06
-5.13065e-07
-3.17303e-06
-3.31931e-07
-3.17142e-06
-1.44419e-07
-3.16153e-06
8.41563e-08
-3.12877e-06
3.81445e-07
-3.06979e-06
8.11084e-07
-2.96833e-06
1.47554e-06
-2.81876e-06
2.54952e-06
-2.4439e-06
4.38883e-06
-1.78344e-06
7.12781e-06
9.25795e-06
-1.30567e-06
-3.9658e-06
-2.48169e-06
-3.63388e-06
-3.42801e-06
-3.19359e-06
-4.16106e-06
-2.58917e-06
-4.70544e-06
-1.99715e-06
-5.0973e-06
-1.49788e-06
-5.37766e-06
-1.1018e-06
-5.5781e-06
-8.04208e-07
-5.72126e-06
-5.8218e-07
-5.82384e-06
-4.10487e-07
-5.89691e-06
-2.58861e-07
-5.94814e-06
-9.31908e-08
-5.96748e-06
1.03502e-07
-5.93195e-06
3.45909e-07
-5.81133e-06
6.9046e-07
-5.56194e-06
1.22615e-06
-5.10894e-06
2.09653e-06
-4.22384e-06
3.50373e-06
-2.5192e-06
5.42317e-06
6.73875e-06
-1.83067e-06
-2.13514e-06
-3.51121e-06
-1.95334e-06
-4.967e-06
-1.73781e-06
-6.14749e-06
-1.40868e-06
-7.05483e-06
-1.08981e-06
-7.73093e-06
-8.21774e-07
-8.22722e-06
-6.05514e-07
-8.59712e-06
-4.3431e-07
-8.87673e-06
-3.02571e-07
-9.08661e-06
-2.006e-07
-9.23417e-06
-1.11305e-07
-9.31536e-06
-1.20045e-08
-9.29807e-06
8.62127e-08
-9.16936e-06
2.17197e-07
-8.87111e-06
3.92215e-07
-8.31816e-06
6.73201e-07
-7.35731e-06
1.13568e-06
-5.74502e-06
1.89143e-06
-3.31306e-06
2.99121e-06
3.42568e-06
-2.18044e-06
4.53057e-08
-4.1815e-06
4.77167e-08
-5.98735e-06
6.80491e-08
-7.48826e-06
9.22215e-08
-8.68321e-06
1.0515e-07
-9.61684e-06
1.11853e-07
-1.03278e-05
1.05436e-07
-1.08573e-05
9.52012e-08
-1.1238e-05
7.81245e-08
-1.14985e-05
5.99389e-08
-1.16518e-05
4.20006e-08
-1.16857e-05
2.18313e-08
-1.15954e-05
-4.07863e-09
-1.1359e-05
-1.91779e-08
-1.09231e-05
-4.37305e-08
-1.01835e-05
-6.63633e-08
-8.94494e-06
-1.02877e-07
-6.90477e-06
-1.4874e-07
-3.69947e-06
-2.14089e-07
-2.73782e-07
-2.1606e-06
2.20591e-06
-4.14879e-06
2.0359e-06
-5.94143e-06
1.86069e-06
-7.42726e-06
1.57805e-06
-8.60403e-06
1.28192e-06
-9.5124e-06
1.02022e-06
-1.0202e-05
7.95054e-07
-1.07145e-05
6.07658e-07
-1.10844e-05
4.48022e-07
-1.13384e-05
3.13987e-07
-1.14854e-05
1.89003e-07
-1.1515e-05
5.13972e-08
-1.14275e-05
-9.15896e-08
-1.11937e-05
-2.52931e-07
-1.07672e-05
-4.70213e-07
-1.00393e-05
-7.94258e-07
-8.82039e-06
-1.32183e-06
-6.80513e-06
-2.164e-06
-3.64043e-06
-3.37879e-06
-3.91421e-06
-1.80749e-06
4.0134e-06
-3.47617e-06
3.70457e-06
-4.9213e-06
3.30582e-06
-6.08395e-06
2.74071e-06
-6.96868e-06
2.16665e-06
-7.6114e-06
1.66294e-06
-8.06741e-06
1.25106e-06
-8.38955e-06
9.29797e-07
-8.62011e-06
6.78582e-07
-8.78475e-06
4.78628e-07
-8.89473e-06
2.98987e-07
-8.95116e-06
1.07829e-07
-8.93052e-06
-1.1223e-07
-8.80335e-06
-3.80105e-07
-8.5225e-06
-7.51058e-07
-8.00056e-06
-1.3162e-06
-7.09348e-06
-2.22892e-06
-5.55164e-06
-3.70584e-06
-3.20639e-06
-5.72404e-06
-7.1206e-06
-1.28676e-06
5.30016e-06
-2.45536e-06
4.87317e-06
-3.39531e-06
4.24578e-06
-4.11346e-06
3.45885e-06
-4.63314e-06
2.68632e-06
-4.99365e-06
2.02345e-06
-5.23756e-06
1.49497e-06
-5.39905e-06
1.09129e-06
-5.50418e-06
7.83709e-07
-5.56994e-06
5.44393e-07
-5.60891e-06
3.3796e-07
-5.63097e-06
1.29884e-07
-5.629e-06
-1.14197e-07
-5.58131e-06
-4.27792e-07
-5.46201e-06
-8.70363e-07
-5.23044e-06
-1.54777e-06
-4.8231e-06
-2.63625e-06
-4.01966e-06
-4.50929e-06
-2.4245e-06
-7.31919e-06
-9.5451e-06
-7.10969e-07
6.01113e-06
-1.39328e-06
5.55549e-06
-1.906e-06
4.75849e-06
-2.28986e-06
3.84271e-06
-2.56129e-06
2.95776e-06
-2.74489e-06
2.20705e-06
-2.86279e-06
1.61287e-06
-2.93193e-06
1.16043e-06
-2.96735e-06
8.19126e-07
-2.97869e-06
5.55737e-07
-2.97423e-06
3.33503e-07
-2.96089e-06
1.16537e-07
-2.94029e-06
-1.34788e-07
-2.90195e-06
-4.66133e-07
-2.8409e-06
-9.31414e-07
-2.74191e-06
-1.64676e-06
-2.60437e-06
-2.77379e-06
-2.25866e-06
-4.855e-06
-1.68501e-06
-7.89283e-06
-1.12301e-05
-2.09948e-07
6.22108e-06
-4.00936e-07
5.74647e-06
-5.33896e-07
4.89145e-06
-6.21727e-07
3.93055e-06
-6.85505e-07
3.02154e-06
-7.30865e-07
2.25241e-06
-7.60855e-07
1.64286e-06
-7.79108e-07
1.17868e-06
-7.90248e-07
8.30266e-07
-7.97957e-07
5.63446e-07
-8.06745e-07
3.42292e-07
-8.20468e-07
1.3026e-07
-8.43274e-07
-1.11982e-07
-8.731e-07
-4.36306e-07
-9.09201e-07
-8.95313e-07
-9.40156e-07
-1.61581e-06
-9.65331e-07
-2.74861e-06
-9.19238e-07
-4.9011e-06
-8.29878e-07
-7.98219e-06
-1.206e-05
3.49578e-07
5.8715e-06
5.53707e-07
5.54235e-06
7.61096e-07
4.68406e-06
9.40603e-07
3.75104e-06
1.06979e-06
2.89235e-06
1.151e-06
2.1712e-06
1.19424e-06
1.59962e-06
1.20932e-06
1.1636e-06
1.2031e-06
8.3648e-07
1.17977e-06
5.86781e-07
1.13976e-06
3.82299e-07
1.08168e-06
1.88339e-07
9.98728e-07
-2.90294e-08
8.87977e-07
-3.25555e-07
7.38217e-07
-7.45554e-07
5.50542e-07
-1.42813e-06
3.6311e-07
-2.56118e-06
-5.95955e-08
-4.47839e-06
-1.45189e-07
-7.8966e-06
-1.22052e-05
7.07237e-07
5.16426e-06
1.3781e-06
4.87149e-06
1.96574e-06
4.09642e-06
2.42137e-06
3.29541e-06
2.73868e-06
2.57503e-06
2.93846e-06
1.97142e-06
3.04982e-06
1.48826e-06
3.09773e-06
1.1157e-06
3.09976e-06
8.34445e-07
3.06812e-06
6.18419e-07
3.00741e-06
4.43011e-07
2.91801e-06
2.77743e-07
2.7891e-06
9.98806e-08
2.61907e-06
-1.55521e-07
2.37535e-06
-5.01838e-07
2.06229e-06
-1.11507e-06
1.58249e-06
-2.08138e-06
1.04769e-06
-3.94359e-06
4.17636e-07
-7.26655e-06
-1.17875e-05
9.42415e-07
4.22185e-06
2.10181e-06
3.71209e-06
3.07825e-06
3.11998e-06
3.81153e-06
2.56213e-06
4.33096e-06
2.05561e-06
4.67889e-06
1.62349e-06
4.89416e-06
1.27298e-06
5.01193e-06
9.97935e-07
5.05816e-06
7.88215e-07
5.05466e-06
6.21919e-07
5.00899e-06
4.88677e-07
4.92828e-06
3.58454e-07
4.79942e-06
2.28736e-07
4.64608e-06
-2.17503e-09
4.35126e-06
-2.0702e-07
3.95206e-06
-7.15875e-07
3.27386e-06
-1.40318e-06
2.42733e-06
-3.09706e-06
1.10209e-06
-5.94131e-06
-1.06855e-05
1.01478e-06
3.20707e-06
2.51768e-06
2.20918e-06
3.92395e-06
1.71372e-06
5.04023e-06
1.44584e-06
5.88382e-06
1.21201e-06
6.51077e-06
9.96548e-07
6.97239e-06
8.11356e-07
7.30663e-06
6.63701e-07
7.54597e-06
5.4887e-07
7.71169e-06
4.56205e-07
7.82344e-06
3.7693e-07
7.88451e-06
2.97376e-07
7.89534e-06
2.17915e-07
7.79149e-06
1.01673e-07
7.59431e-06
-9.84108e-09
7.23569e-06
-3.57259e-07
6.56802e-06
-7.35513e-07
5.376e-06
-1.90503e-06
2.94602e-06
-3.51133e-06
-7.73943e-06
3.20707e-06
5.41625e-06
7.12997e-06
8.57582e-06
9.78783e-06
1.07844e-05
1.15957e-05
1.22594e-05
1.28083e-05
1.32645e-05
1.36414e-05
1.39388e-05
1.41567e-05
1.42584e-05
1.42486e-05
1.38913e-05
1.31558e-05
1.12508e-05
7.73943e-06
)
;

boundaryField
{
    movingWall
    {
        type            calculated;
        value           uniform 0;
    }
    movingWallBottom
    {
        type            calculated;
        value           uniform 0;
    }
    fixedWalls
    {
        type            calculated;
        value           uniform 0;
    }
    frontAndBack
    {
        type            empty;
        value           nonuniform 0();
    }
}


// ************************************************************************* //
