/*--------------------------------*- C++ -*----------------------------------*\
| =========                 |                                                 |
| \\      /  F ield         | OpenFOAM: The Open Source CFD Toolbox           |
|  \\    /   O peration     | Version:  4.1                                   |
|   \\  /    A nd           | Web:      www.OpenFOAM.org                      |
|    \\/     M anipulation  |                                                 |
\*---------------------------------------------------------------------------*/
FoamFile
{
    version     2.0;
    format      ascii;
    class       volVectorField;
    location    "10";
    object      U;
}
// * * * * * * * * * * * * * * * * * * * * * * * * * * * * * * * * * * * * * //

dimensions      [0 1 -1 0 0 0 0];

internalField   nonuniform List<vector> 
400
(
(0.0637674 -0.098874 0)
(0.0775734 -0.0640232 0)
(0.123788 -0.0435846 0)
(0.158335 -0.0340125 0)
(0.184831 -0.028083 0)
(0.206315 -0.0236409 0)
(0.223747 -0.0200111 0)
(0.238453 -0.0171077 0)
(0.250132 -0.014656 0)
(0.260197 -0.012707 0)
(0.26781 -0.0108772 0)
(0.274625 -0.00938846 0)
(0.278956 -0.00764544 0)
(0.282573 -0.00610468 0)
(0.282797 -0.00368325 0)
(0.27955 -0.000519445 0)
(0.269158 0.00136372 0)
(0.250403 0.0117104 0)
(0.188834 0.0225171 0)
(0.17258 0.117424 0)
(0.0156752 -0.0515576 0)
(0.0311485 -0.0422133 0)
(0.0641945 -0.0368655 0)
(0.0888787 -0.0315718 0)
(0.108386 -0.0261169 0)
(0.123113 -0.0209941 0)
(0.133816 -0.0166011 0)
(0.141617 -0.0131301 0)
(0.146928 -0.0105699 0)
(0.150878 -0.00852979 0)
(0.153165 -0.00693574 0)
(0.155131 -0.00513281 0)
(0.155234 -0.00350628 0)
(0.15529 2.53095e-06 0)
(0.151045 0.00303426 0)
(0.147899 0.0113601 0)
(0.133566 0.0213902 0)
(0.126475 0.0501459 0)
(0.0651193 0.0939691 0)
(0.0899812 0.164484 0)
(0.0111076 -0.101264 0)
(0.0294174 -0.093303 0)
(0.051249 -0.07875 0)
(0.0677954 -0.0645077 0)
(0.0801991 -0.0509819 0)
(0.0888158 -0.0393577 0)
(0.0941387 -0.0301133 0)
(0.0971073 -0.0230859 0)
(0.0984344 -0.0178392 0)
(0.0987432 -0.0138325 0)
(0.0981713 -0.0106041 0)
(0.0971523 -0.00764725 0)
(0.0949318 -0.00446991 0)
(0.0928583 -0.000130626 0)
(0.0874694 0.0059259 0)
(0.0834589 0.0173872 0)
(0.068324 0.0348869 0)
(0.0673521 0.0723602 0)
(0.0126182 0.135606 0)
(0.0496903 0.222624 0)
(0.00707168 -0.113962 0)
(0.0205216 -0.106661 0)
(0.0318887 -0.0885567 0)
(0.0426283 -0.069787 0)
(0.0503938 -0.0535375 0)
(0.0553458 -0.0403311 0)
(0.0581031 -0.029979 0)
(0.0593608 -0.0221396 0)
(0.0596288 -0.0163029 0)
(0.0592347 -0.0118897 0)
(0.0583109 -0.0083115 0)
(0.0569186 -0.0049264 0)
(0.054829 -0.00109029 0)
(0.0522088 0.00433887 0)
(0.0478932 0.0119532 0)
(0.0440722 0.024782 0)
(0.032028 0.0461588 0)
(0.0365669 0.0853063 0)
(-0.00702986 0.154606 0)
(0.032062 0.250408 0)
(0.00267402 -0.123939 0)
(0.00893366 -0.115353 0)
(0.0114196 -0.0968665 0)
(0.0156137 -0.0770397 0)
(0.0187177 -0.058716 0)
(0.0206508 -0.0435197 0)
(0.0216054 -0.0317177 0)
(0.0219018 -0.0228785 0)
(0.0217588 -0.0163563 0)
(0.0213267 -0.011462 0)
(0.020637 -0.00748165 0)
(0.0196733 -0.0036432 0)
(0.0183156 0.000817559 0)
(0.0165394 0.00688987 0)
(0.0139698 0.0156481 0)
(0.0117757 0.0297072 0)
(0.00360288 0.0524843 0)
(0.011732 0.0936368 0)
(-0.0197705 0.162223 0)
(0.0174299 0.251078 0)
(-0.00538872 -0.124491 0)
(-0.00588932 -0.113486 0)
(-0.0112379 -0.0959965 0)
(-0.0131625 -0.0765661 0)
(-0.0146605 -0.0583462 0)
(-0.0159242 -0.0431765 0)
(-0.0169414 -0.0313581 0)
(-0.0177275 -0.0225514 0)
(-0.0182854 -0.0160516 0)
(-0.0186953 -0.0111161 0)
(-0.0190208 -0.00700735 0)
(-0.019344 -0.00296169 0)
(-0.0197933 0.00178499 0)
(-0.0203385 0.00819445 0)
(-0.0209638 0.0174833 0)
(-0.0215039 0.0318511 0)
(-0.0244787 0.0543937 0)
(-0.0146183 0.0958106 0)
(-0.0330752 0.159203 0)
(0.00807993 0.237441 0)
(-0.0116643 -0.112476 0)
(-0.0217035 -0.104202 0)
(-0.0353622 -0.0891235 0)
(-0.0441997 -0.0713842 0)
(-0.0504528 -0.0545275 0)
(-0.0550956 -0.0404708 0)
(-0.0583694 -0.0295223 0)
(-0.0606721 -0.0213406 0)
(-0.0621369 -0.0153191 0)
(-0.0629907 -0.0107656 0)
(-0.063417 -0.0068986 0)
(-0.0635649 -0.00298242 0)
(-0.0635222 0.00174409 0)
(-0.063207 0.00813031 0)
(-0.0627455 0.0168663 0)
(-0.0619074 0.0302538 0)
(-0.0599052 0.0525125 0)
(-0.0495305 0.0933497 0)
(-0.0510562 0.154139 0)
(-0.00692762 0.2102 0)
(-0.0198691 -0.091821 0)
(-0.0384217 -0.0846558 0)
(-0.0612663 -0.0738822 0)
(-0.0781213 -0.0596805 0)
(-0.0898886 -0.0460349 0)
(-0.0987415 -0.034463 0)
(-0.104989 -0.0253318 0)
(-0.109716 -0.0185175 0)
(-0.113038 -0.0133824 0)
(-0.115508 -0.00939407 0)
(-0.117306 -0.0059579 0)
(-0.118639 -0.0023597 0)
(-0.119557 0.00207355 0)
(-0.119963 0.00792547 0)
(-0.119541 0.0164683 0)
(-0.116653 0.029858 0)
(-0.109087 0.0513213 0)
(-0.0921667 0.0866625 0)
(-0.0680706 0.135203 0)
(-0.0197824 0.169678 0)
(-0.0263953 -0.059629 0)
(-0.0539142 -0.0554341 0)
(-0.0870989 -0.0490008 0)
(-0.114342 -0.039405 0)
(-0.133849 -0.0301098 0)
(-0.149254 -0.0226713 0)
(-0.160048 -0.0167789 0)
(-0.168497 -0.0121853 0)
(-0.174744 -0.00866906 0)
(-0.179835 -0.00592931 0)
(-0.18341 -0.00344283 0)
(-0.185948 -0.000706763 0)
(-0.187363 0.00280444 0)
(-0.187068 0.00727294 0)
(-0.184023 0.0134871 0)
(-0.176118 0.0231882 0)
(-0.159664 0.03899 0)
(-0.130223 0.0638188 0)
(-0.0811033 0.0966013 0)
(-0.0463789 0.111737 0)
(-0.0310994 -0.0205394 0)
(-0.0636944 -0.0188016 0)
(-0.103938 -0.0166832 0)
(-0.139029 -0.0135143 0)
(-0.163749 -0.0105841 0)
(-0.184592 -0.00760915 0)
(-0.200081 -0.00515238 0)
(-0.212422 -0.00331684 0)
(-0.221242 -0.00201573 0)
(-0.227783 -0.00103361 0)
(-0.231877 -0.000215735 0)
(-0.233889 0.000544627 0)
(-0.234495 0.00155156 0)
(-0.232791 0.00312264 0)
(-0.227454 0.00508025 0)
(-0.215321 0.00855788 0)
(-0.192494 0.0141565 0)
(-0.154631 0.0231206 0)
(-0.0998326 0.0344256 0)
(-0.0501318 0.0379385 0)
(-0.0307593 0.0221614 0)
(-0.0631643 0.0205769 0)
(-0.103147 0.0192622 0)
(-0.13801 0.0170219 0)
(-0.162458 0.0145388 0)
(-0.1827 0.0118181 0)
(-0.197787 0.00913146 0)
(-0.209716 0.00692353 0)
(-0.21821 0.00501225 0)
(-0.224611 0.00334898 0)
(-0.228561 0.00178784 0)
(-0.230864 0.000158818 0)
(-0.231177 -0.00180663 0)
(-0.229507 -0.0040712 0)
(-0.224176 -0.00715196 0)
(-0.21234 -0.0117009 0)
(-0.189825 -0.018994 0)
(-0.152537 -0.0300436 0)
(-0.0982679 -0.0440975 0)
(-0.0482812 -0.0501469 0)
(-0.0259981 0.0607962 0)
(-0.0532477 0.0569378 0)
(-0.086331 0.0512861 0)
(-0.113413 0.0425754 0)
(-0.132386 0.033746 0)
(-0.14728 0.0262693 0)
(-0.157284 0.0201563 0)
(-0.164884 0.0152024 0)
(-0.170103 0.0111163 0)
(-0.174202 0.00776561 0)
(-0.176917 0.00464184 0)
(-0.178829 0.00125968 0)
(-0.179874 -0.00279071 0)
(-0.179586 -0.00790285 0)
(-0.176687 -0.0148028 0)
(-0.169338 -0.0252642 0)
(-0.153734 -0.0421379 0)
(-0.125657 -0.0685412 0)
(-0.0789063 -0.103427 0)
(-0.0432058 -0.119927 0)
(-0.0195226 0.092583 0)
(-0.0378734 0.0859521 0)
(-0.0607423 0.0760041 0)
(-0.0774668 0.0624817 0)
(-0.0887497 0.0490846 0)
(-0.0970598 0.0373848 0)
(-0.102563 0.0278966 0)
(-0.106514 0.0205778 0)
(-0.109091 0.0149031 0)
(-0.110769 0.0103931 0)
(-0.111863 0.00643139 0)
(-0.112539 0.00238867 0)
(-0.112944 -0.00242307 0)
(-0.112936 -0.00857701 0)
(-0.112311 -0.0173597 0)
(-0.10967 -0.03103 0)
(-0.102764 -0.0529634 0)
(-0.0869707 -0.0893859 0)
(-0.066121 -0.139747 0)
(-0.0178995 -0.176303 0)
(-0.0114077 0.112923 0)
(-0.0212595 0.105389 0)
(-0.0348592 0.0911477 0)
(-0.043474 0.0739406 0)
(-0.0492794 0.057178 0)
(-0.0534404 0.0428731 0)
(-0.0561982 0.0314975 0)
(-0.0580041 0.0227966 0)
(-0.0590142 0.0162291 0)
(-0.0594757 0.0111569 0)
(-0.0595678 0.00681836 0)
(-0.0594422 0.00251421 0)
(-0.0591826 -0.00252053 0)
(-0.0586869 -0.00915283 0)
(-0.0580929 -0.0181114 0)
(-0.0572115 -0.0316237 0)
(-0.0555431 -0.0538253 0)
(-0.045124 -0.0947482 0)
(-0.0487295 -0.156092 0)
(-0.0056654 -0.214377 0)
(-0.00513716 0.124662 0)
(-0.00546947 0.114488 0)
(-0.0106531 0.0977638 0)
(-0.012275 0.0787718 0)
(-0.0133754 0.0605884 0)
(-0.0142336 0.0451666 0)
(-0.0148691 0.0329333 0)
(-0.0153301 0.0236387 0)
(-0.0156179 0.0166503 0)
(-0.0158321 0.0112636 0)
(-0.0160231 0.00675188 0)
(-0.0162728 0.00237763 0)
(-0.0166983 -0.00261987 0)
(-0.0172635 -0.00922923 0)
(-0.0179676 -0.0186721 0)
(-0.0185642 -0.0332253 0)
(-0.021956 -0.0560209 0)
(-0.0119329 -0.0975554 0)
(-0.0315973 -0.161128 0)
(0.00877144 -0.240487 0)
(0.0028255 0.123871 0)
(0.00930134 0.116157 0)
(0.0120546 0.0984493 0)
(0.0166078 0.0789786 0)
(0.0201146 0.0606524 0)
(0.0224375 0.045199 0)
(0.0237244 0.0330142 0)
(0.0242698 0.0237465 0)
(0.0242977 0.0168018 0)
(0.0239542 0.0115171 0)
(0.023282 0.00719718 0)
(0.0222797 0.00308185 0)
(0.0208225 -0.00158284 0)
(0.0189294 -0.00781957 0)
(0.0161846 -0.0166865 0)
(0.0138398 -0.0308096 0)
(0.00528661 -0.0536087 0)
(0.0136442 -0.0945798 0)
(-0.0188038 -0.163364 0)
(0.0179859 -0.252964 0)
(0.00724916 0.113628 0)
(0.0208381 0.107103 0)
(0.032469 0.0897362 0)
(0.0436313 0.0712417 0)
(0.0518845 0.0549822 0)
(0.057273 0.0416001 0)
(0.06037 0.0309731 0)
(0.0618538 0.0228094 0)
(0.0622394 0.0166432 0)
(0.0618697 0.0119211 0)
(0.0608853 0.00807529 0)
(0.059377 0.00445653 0)
(0.0570872 0.00045446 0)
(0.0542774 -0.00509507 0)
(0.0496811 -0.0127832 0)
(0.0456625 -0.0256802 0)
(0.0332092 -0.0470267 0)
(0.0376471 -0.0862596 0)
(-0.00629057 -0.155966 0)
(0.0323864 -0.251448 0)
(0.0111465 0.100889 0)
(0.0294709 0.0934863 0)
(0.0516591 0.0795202 0)
(0.0687178 0.0655288 0)
(0.0816002 0.0520969 0)
(0.0906925 0.0403848 0)
(0.0964032 0.030949 0)
(0.0996397 0.0236822 0)
(0.101095 0.0181995 0)
(0.101422 0.013972 0)
(0.100743 0.010557 0)
(0.0995655 0.0074326 0)
(0.0970799 0.0041376 0)
(0.0948142 -0.000297472 0)
(0.0890407 -0.0064177 0)
(0.0848222 -0.0179635 0)
(0.0692625 -0.0354332 0)
(0.0681606 -0.0729966 0)
(0.0130236 -0.136153 0)
(0.0500269 -0.223337 0)
(0.015534 0.0512118 0)
(0.0309763 0.0420462 0)
(0.0642149 0.0370865 0)
(0.0893034 0.0320168 0)
(0.109245 0.0265929 0)
(0.124423 0.0214267 0)
(0.135498 0.0169542 0)
(0.143622 0.0133709 0)
(0.149107 0.0107096 0)
(0.153177 0.0085614 0)
(0.155411 0.00689697 0)
(0.157321 0.00500276 0)
(0.15721 0.00334073 0)
(0.157066 -0.000256272 0)
(0.152501 -0.00324592 0)
(0.149173 -0.0116812 0)
(0.134494 -0.0216504 0)
(0.127214 -0.0504604 0)
(0.065603 -0.0943208 0)
(0.0902605 -0.16484 0)
(0.0636252 0.0988144 0)
(0.0773989 0.0639683 0)
(0.123551 0.0435835 0)
(0.158287 0.0340606 0)
(0.185033 0.0281654 0)
(0.206836 0.0237328 0)
(0.22452 0.0201167 0)
(0.239487 0.0172044 0)
(0.251311 0.0147623 0)
(0.261516 0.012792 0)
(0.269146 0.0109744 0)
(0.275986 0.00944605 0)
(0.280234 0.00771917 0)
(0.283791 0.00611191 0)
(0.283852 0.00372803 0)
(0.280488 0.000503014 0)
(0.269915 -0.00134535 0)
(0.251005 -0.0117903 0)
(0.189172 -0.022539 0)
(0.172764 -0.117415 0)
)
;

boundaryField
{
    movingWall
    {
        type            fixedValue;
        value           uniform (1 0 0);
    }
    movingWallBottom
    {
        type            fixedValue;
        value           uniform (1 0 0);
    }
    fixedWalls
    {
        type            noSlip;
    }
    frontAndBack
    {
        type            empty;
    }
}


// ************************************************************************* //
