/*--------------------------------*- C++ -*----------------------------------*\
| =========                 |                                                 |
| \\      /  F ield         | OpenFOAM: The Open Source CFD Toolbox           |
|  \\    /   O peration     | Version:  4.1                                   |
|   \\  /    A nd           | Web:      www.OpenFOAM.org                      |
|    \\/     M anipulation  |                                                 |
\*---------------------------------------------------------------------------*/
FoamFile
{
    version     2.0;
    format      ascii;
    class       volScalarField;
    location    "6.5";
    object      epsilon;
}
// * * * * * * * * * * * * * * * * * * * * * * * * * * * * * * * * * * * * * //

dimensions      [0 2 -3 0 0 0 0];

internalField   nonuniform List<scalar> 
400
(
0.0400776
0.0701101
0.0914381
0.102761
0.110382
0.116015
0.120667
0.124473
0.127761
0.130496
0.132965
0.135221
0.137498
0.139879
0.142997
0.145935
0.149454
0.154384
0.170846
0.148824
0.00987047
0.00812788
0.00880578
0.00974104
0.0107107
0.011777
0.0130458
0.014554
0.0162113
0.01805
0.0198954
0.0219301
0.0236949
0.0258876
0.0272932
0.0311832
0.036384
0.0488576
0.0749923
0.110481
0.0112135
0.00587445
0.00433079
0.00391024
0.00393787
0.00416057
0.00467159
0.00541534
0.006294
0.00727197
0.00824133
0.00920865
0.0100087
0.0107426
0.0111834
0.0121366
0.0138276
0.0199058
0.0370745
0.0811153
0.012268
0.00523916
0.0036887
0.00335054
0.00343922
0.00376433
0.00433399
0.00501742
0.00573032
0.00639695
0.00693139
0.00727632
0.0074013
0.00738536
0.00725177
0.00735964
0.00807334
0.0121242
0.0249812
0.0660754
0.013104
0.00508411
0.0037265
0.00363032
0.00396116
0.00455827
0.00523114
0.00589341
0.00644962
0.00683489
0.00698418
0.00688744
0.00656043
0.00606461
0.00553052
0.00530804
0.0058087
0.0093101
0.0201461
0.0570892
0.0135375
0.00520471
0.00424338
0.00422734
0.00480908
0.00555527
0.00628382
0.00688321
0.00724233
0.00735481
0.00716591
0.00670335
0.00602286
0.00523848
0.0045598
0.00429827
0.00498559
0.00838427
0.0190719
0.0501669
0.0140413
0.00599148
0.00490104
0.00480802
0.00545612
0.0062784
0.00698506
0.00746097
0.00765605
0.00761483
0.00718782
0.00650738
0.00567941
0.00485866
0.00438931
0.00430148
0.0052474
0.00885257
0.019615
0.0438829
0.0143806
0.00668927
0.00523373
0.00506476
0.00568375
0.00649987
0.00712664
0.00744441
0.00753819
0.00735138
0.00684052
0.0061943
0.00553273
0.00510518
0.0049576
0.00522121
0.00670839
0.0107608
0.0212001
0.0371609
0.0145162
0.00742644
0.00524037
0.00461961
0.00459847
0.00505179
0.00534566
0.00553823
0.00560588
0.00561233
0.00558563
0.00558695
0.00575213
0.00609051
0.00675627
0.00800685
0.010355
0.0146408
0.0212564
0.0290078
0.0145591
0.00779399
0.00501606
0.00386084
0.00352522
0.00346635
0.00354437
0.00374369
0.00400207
0.0043722
0.00483498
0.00545071
0.00623688
0.00727602
0.00866148
0.0105489
0.0130711
0.0161097
0.0175995
0.0162087
0.0145446
0.00778254
0.0050187
0.00387264
0.00354242
0.00348694
0.00357309
0.0037724
0.00402968
0.0043925
0.0048474
0.00545096
0.0062247
0.00724912
0.00862242
0.0105047
0.0130438
0.0162045
0.0177827
0.0166744
0.0144832
0.00739142
0.00520779
0.00458675
0.00456456
0.00502567
0.00533747
0.00554833
0.00562618
0.00563428
0.00558939
0.00557727
0.00569154
0.00599842
0.00660739
0.00781791
0.0101178
0.0144289
0.0212855
0.0294716
0.0143278
0.00664598
0.00518055
0.00499307
0.00559092
0.0064018
0.00702914
0.00735492
0.00745366
0.00728606
0.0067865
0.00614693
0.00548026
0.00503605
0.00487842
0.00511976
0.00657768
0.0105971
0.0210372
0.0373641
0.0139689
0.00594393
0.00483801
0.00473916
0.00536764
0.00617949
0.00687605
0.00734518
0.00753902
0.00750545
0.00709121
0.00642559
0.00561302
0.00480497
0.00433976
0.00425285
0.00519445
0.00876913
0.0194952
0.0440189
0.0134735
0.00516043
0.00419203
0.00416893
0.00473624
0.00546862
0.00618267
0.00677254
0.00713001
0.00724622
0.00706842
0.00662213
0.00596148
0.00519646
0.00453211
0.0042764
0.00495883
0.00833694
0.018973
0.0502264
0.0130488
0.00505679
0.00368864
0.00358716
0.00390839
0.00449342
0.00515186
0.00580147
0.00635022
0.00673433
0.00688977
0.00680411
0.00649529
0.00601683
0.00549997
0.00529153
0.00579623
0.00928314
0.0200655
0.0571021
0.0122178
0.00521454
0.00366608
0.00332435
0.00340725
0.00371992
0.00427406
0.00494184
0.00564186
0.0063008
0.00683368
0.00718427
0.00732159
0.00731663
0.00720193
0.00732099
0.00804419
0.0120942
0.0249631
0.0660471
0.0111646
0.0058514
0.0043121
0.0038895
0.00391282
0.00412511
0.00461828
0.00534376
0.00620359
0.00716615
0.00812407
0.00908737
0.00988868
0.0106311
0.0110838
0.0120577
0.01376
0.0198445
0.0370252
0.0810751
0.00983507
0.00810752
0.00878756
0.00971503
0.0106716
0.0117202
0.0129645
0.0144477
0.0160768
0.0178918
0.0197116
0.021732
0.0234832
0.0256732
0.0270916
0.0310149
0.0362326
0.0487309
0.0749106
0.110378
0.0400746
0.0701564
0.0914806
0.102758
0.110318
0.115895
0.120491
0.124257
0.127505
0.130219
0.132661
0.134914
0.137178
0.139572
0.142694
0.145639
0.149175
0.154118
0.170617
0.148671
)
;

boundaryField
{
    movingWall
    {
        Cmu             0.09;
        kappa           0.41;
        E               9.8;
        type            epsilonWallFunction;
        value           nonuniform List<scalar> 
20
(
0.0400746
0.0701564
0.0914806
0.102758
0.110318
0.115895
0.120491
0.124257
0.127505
0.130219
0.132661
0.134914
0.137178
0.139572
0.142694
0.145639
0.149175
0.154118
0.170617
0.148671
)
;
    }
    movingWallBottom
    {
        Cmu             0.09;
        kappa           0.41;
        E               9.8;
        type            epsilonWallFunction;
        value           nonuniform List<scalar> 
20
(
0.0400776
0.0701101
0.0914381
0.102761
0.110382
0.116015
0.120667
0.124473
0.127761
0.130496
0.132965
0.135221
0.137498
0.139879
0.142997
0.145935
0.149454
0.154384
0.170846
0.148824
)
;
    }
    fixedWalls
    {
        Cmu             0.09;
        kappa           0.41;
        E               9.8;
        type            epsilonWallFunction;
        value           nonuniform List<scalar> 
40
(
0.0400776
0.00987047
0.0112135
0.012268
0.013104
0.0135375
0.0140413
0.0143806
0.0145162
0.0145591
0.0145446
0.0144832
0.0143278
0.0139689
0.0134735
0.0130488
0.0122178
0.0111646
0.00983507
0.0400746
0.148824
0.110481
0.0811153
0.0660754
0.0570892
0.0501669
0.0438829
0.0371609
0.0290078
0.0162087
0.0166744
0.0294716
0.0373641
0.0440189
0.0502264
0.0571021
0.0660471
0.0810751
0.110378
0.148671
)
;
    }
    frontAndBack
    {
        type            empty;
    }
}


// ************************************************************************* //
