/*--------------------------------*- C++ -*----------------------------------*\
| =========                 |                                                 |
| \\      /  F ield         | OpenFOAM: The Open Source CFD Toolbox           |
|  \\    /   O peration     | Version:  4.1                                   |
|   \\  /    A nd           | Web:      www.OpenFOAM.org                      |
|    \\/     M anipulation  |                                                 |
\*---------------------------------------------------------------------------*/
FoamFile
{
    version     2.0;
    format      ascii;
    class       volScalarField;
    location    "6.5";
    object      k;
}
// * * * * * * * * * * * * * * * * * * * * * * * * * * * * * * * * * * * * * //

dimensions      [0 2 -2 0 0 0 0];

internalField   nonuniform List<scalar> 
400
(
0.00396851
0.00576174
0.00687786
0.00743458
0.00779779
0.00806092
0.00827499
0.00844809
0.00859623
0.00871844
0.00882806
0.00892762
0.00902756
0.00913147
0.00926663
0.00939313
0.00954352
0.00975225
0.0104337
0.00951662
0.00155916
0.00169475
0.00198434
0.00216167
0.00228197
0.00240855
0.00256208
0.00275073
0.00296605
0.00320628
0.00345105
0.0037002
0.00391272
0.00412603
0.00422467
0.00442484
0.00459394
0.00511163
0.0064508
0.00780233
0.00169754
0.00168256
0.00181573
0.00192032
0.00200376
0.00213492
0.00232038
0.00255406
0.00281551
0.0030826
0.00332293
0.00351479
0.00363773
0.00365018
0.00359448
0.00347842
0.003249
0.00342307
0.00432349
0.00634986
0.00180238
0.00172264
0.00181451
0.00194444
0.00214322
0.0024103
0.0027151
0.00302839
0.00331627
0.00354913
0.00369978
0.00374663
0.00370421
0.00357194
0.0033207
0.00304221
0.00272778
0.00284241
0.00353722
0.00553844
0.00188337
0.00194897
0.0020462
0.00218607
0.0024466
0.00277651
0.00312725
0.00345281
0.00370426
0.00385925
0.00390105
0.00383466
0.00364919
0.00336234
0.0029977
0.00264921
0.00238034
0.00254394
0.0032147
0.00502414
0.0019247
0.0021517
0.00220569
0.00235312
0.00267442
0.00304762
0.00339693
0.00367976
0.0038742
0.00394924
0.00389337
0.00370305
0.00339895
0.00301205
0.00259292
0.00224761
0.00209528
0.00229434
0.0030106
0.0046093
0.00197217
0.00239282
0.00235601
0.00243002
0.00277032
0.00315032
0.00347575
0.00369116
0.00377685
0.00376277
0.00360134
0.00332457
0.00295903
0.00254311
0.00212518
0.00189925
0.00183722
0.00213577
0.00292343
0.00421585
0.00200383
0.00262871
0.00241688
0.00240528
0.00265023
0.0029446
0.00315541
0.0032526
0.00327081
0.00315511
0.00292899
0.00263364
0.00230997
0.00200672
0.00184694
0.00178857
0.00183902
0.00219919
0.00293633
0.00377351
0.00201642
0.00281985
0.00220415
0.00199995
0.00199019
0.00210052
0.0021492
0.00216314
0.00211162
0.00201203
0.00190775
0.00181074
0.00175721
0.00173671
0.00175443
0.00186161
0.00206231
0.00247305
0.00290172
0.00319909
0.00202039
0.0029626
0.00207317
0.00164093
0.00147545
0.00141009
0.00138086
0.00137116
0.0013713
0.00140543
0.00145065
0.00152586
0.00162039
0.00174519
0.00190209
0.00210734
0.00234407
0.00252855
0.00259639
0.00217026
0.00201905
0.00295841
0.00207481
0.0016465
0.00148402
0.00142109
0.00139324
0.00138407
0.00138415
0.00141493
0.00145824
0.00152956
0.00162191
0.00174314
0.00189765
0.00210272
0.00234273
0.00253873
0.00261437
0.00221169
0.00201336
0.00280989
0.00219482
0.00199007
0.00198092
0.00210191
0.00215806
0.00217702
0.00214011
0.00203911
0.00193464
0.00182903
0.00176696
0.00174158
0.00174328
0.00184845
0.00203695
0.0024549
0.00290148
0.00323315
0.00199891
0.0026126
0.00239457
0.00238052
0.00262229
0.00292015
0.00313932
0.00324368
0.00326724
0.00316445
0.00294607
0.00265332
0.00232867
0.00201801
0.00184833
0.00178594
0.00182942
0.00218923
0.00292877
0.00378727
0.00196537
0.00237592
0.00233397
0.00240222
0.00273871
0.00311822
0.00344518
0.00366454
0.00375359
0.00374674
0.00359205
0.00332126
0.00296136
0.0025497
0.00213462
0.00190439
0.00184013
0.00213122
0.00291615
0.00422457
0.00191862
0.00213614
0.00218489
0.0023272
0.00264491
0.00301632
0.00336475
0.00364758
0.0038435
0.00392267
0.00387253
0.0036886
0.0033912
0.00301002
0.00259556
0.00225249
0.00210001
0.00229777
0.00300727
0.00461295
0.00187807
0.00193606
0.00202895
0.00216494
0.00242217
0.00274863
0.00309614
0.00341956
0.00367173
0.00382904
0.00387465
0.00381312
0.00363382
0.00335309
0.00299334
0.00264862
0.00237986
0.00253953
0.00320696
0.0050249
0.00179746
0.00171214
0.00180249
0.00192854
0.00212383
0.00238718
0.00268812
0.00299818
0.00328429
0.00351726
0.00366997
0.00372069
0.00368122
0.00355457
0.00330769
0.0030337
0.00272135
0.00283615
0.00353211
0.00553686
0.0016926
0.00167514
0.00180625
0.00191157
0.00199329
0.00212093
0.00230187
0.00253062
0.00278761
0.00305165
0.00329056
0.00348306
0.00360739
0.00362436
0.00357097
0.00345895
0.00323415
0.00340963
0.00431551
0.00634776
0.00155543
0.0016893
0.00197757
0.00215428
0.00227317
0.00239719
0.00254732
0.00273206
0.00294306
0.00317936
0.00342036
0.00366738
0.00387802
0.00409185
0.00419193
0.00439581
0.00456912
0.00509358
0.00644359
0.00779746
0.00396831
0.00576428
0.00687999
0.00743442
0.00779477
0.00805534
0.00826691
0.00843829
0.00858469
0.00870609
0.00881457
0.00891406
0.00901351
0.00911805
0.00925352
0.00938041
0.00953162
0.00974103
0.0104244
0.00951006
)
;

boundaryField
{
    movingWall
    {
        type            kqRWallFunction;
        value           nonuniform List<scalar> 
20
(
0.00396831
0.00576428
0.00687999
0.00743442
0.00779477
0.00805534
0.00826691
0.00843829
0.00858469
0.00870609
0.00881457
0.00891406
0.00901351
0.00911805
0.00925352
0.00938041
0.00953162
0.00974103
0.0104244
0.00951006
)
;
    }
    movingWallBottom
    {
        type            kqRWallFunction;
        value           nonuniform List<scalar> 
20
(
0.00396851
0.00576174
0.00687786
0.00743458
0.00779779
0.00806092
0.00827499
0.00844809
0.00859623
0.00871844
0.00882806
0.00892762
0.00902756
0.00913147
0.00926663
0.00939313
0.00954352
0.00975225
0.0104337
0.00951662
)
;
    }
    fixedWalls
    {
        type            kqRWallFunction;
        value           nonuniform List<scalar> 
40
(
0.00396851
0.00155916
0.00169754
0.00180238
0.00188337
0.0019247
0.00197217
0.00200383
0.00201642
0.00202039
0.00201905
0.00201336
0.00199891
0.00196537
0.00191862
0.00187807
0.00179746
0.0016926
0.00155543
0.00396831
0.00951662
0.00780233
0.00634986
0.00553844
0.00502414
0.0046093
0.00421585
0.00377351
0.00319909
0.00217026
0.00221169
0.00323315
0.00378727
0.00422457
0.00461295
0.0050249
0.00553686
0.00634776
0.00779746
0.00951006
)
;
    }
    frontAndBack
    {
        type            empty;
    }
}


// ************************************************************************* //
