/*--------------------------------*- C++ -*----------------------------------*\
| =========                 |                                                 |
| \\      /  F ield         | OpenFOAM: The Open Source CFD Toolbox           |
|  \\    /   O peration     | Version:  4.1                                   |
|   \\  /    A nd           | Web:      www.OpenFOAM.org                      |
|    \\/     M anipulation  |                                                 |
\*---------------------------------------------------------------------------*/
FoamFile
{
    version     2.0;
    format      ascii;
    class       volScalarField;
    location    "6.5";
    object      nut;
}
// * * * * * * * * * * * * * * * * * * * * * * * * * * * * * * * * * * * * * //

dimensions      [0 2 -1 0 0 0 0];

internalField   nonuniform List<scalar> 
400
(
3.53668e-05
4.26157e-05
4.65609e-05
4.84092e-05
4.95779e-05
5.04076e-05
5.10726e-05
5.16041e-05
5.20545e-05
5.24232e-05
5.27516e-05
5.30481e-05
5.33441e-05
5.36501e-05
5.40456e-05
5.44131e-05
5.48469e-05
5.54433e-05
5.73473e-05
5.47688e-05
2.2166e-05
3.18038e-05
4.02446e-05
4.31735e-05
4.37565e-05
4.43321e-05
4.52854e-05
4.67903e-05
4.88406e-05
5.12587e-05
5.38758e-05
5.61892e-05
5.81493e-05
5.91855e-05
5.88537e-05
5.65091e-05
5.22039e-05
4.81315e-05
4.99404e-05
4.95908e-05
2.31281e-05
4.33726e-05
6.85142e-05
8.48764e-05
9.17643e-05
9.85942e-05
0.000103728
0.000108412
0.000113352
0.000117605
0.000120583
0.000120738
0.000118995
0.000111626
0.000103978
8.97244e-05
6.87059e-05
5.29777e-05
4.53771e-05
4.47372e-05
2.38321e-05
5.09767e-05
8.03316e-05
0.000101559
0.000120203
0.000138898
0.000153083
0.000164507
0.000172728
0.00017722
0.000177736
0.000173625
0.00016685
0.000155481
0.000136854
0.000113178
8.29483e-05
5.9974e-05
4.50767e-05
4.17809e-05
2.43618e-05
6.72416e-05
0.00010112
0.000118475
0.000136002
0.000152209
0.000168256
0.000182063
0.000191474
0.000196117
0.000196106
0.00019215
0.000182686
0.000167774
0.000146236
0.000118998
8.77892e-05
6.25609e-05
4.6167e-05
3.97935e-05
2.46279e-05
8.00587e-05
0.000103185
0.000117887
0.000133857
0.000150473
0.000165269
0.000177048
0.000186521
0.000190853
0.000190381
0.000184107
0.000172635
0.000155869
0.000132701
0.000105777
7.92523e-05
5.65058e-05
4.27714e-05
3.8115e-05
2.49301e-05
8.60058e-05
0.000101932
0.000110534
0.000126595
0.000142266
0.000155657
0.000164351
0.000167686
0.000167339
0.000162395
0.000152865
0.000138752
0.0001198
9.26057e-05
7.54726e-05
5.78925e-05
4.63749e-05
3.92138e-05
3.64518e-05
2.51297e-05
9.29717e-05
0.000100448
0.000102805
0.000111218
0.000120058
0.000125739
0.000127901
0.000127728
0.000121872
0.000112873
0.000100777
8.6799e-05
7.0991e-05
6.19264e-05
5.5142e-05
4.53729e-05
4.04502e-05
3.66026e-05
3.44862e-05
2.52087e-05
9.63635e-05
8.34375e-05
7.79247e-05
7.75211e-05
7.86054e-05
7.77667e-05
7.604e-05
7.15862e-05
6.49183e-05
5.86426e-05
5.28178e-05
4.83126e-05
4.45702e-05
4.10022e-05
3.89547e-05
3.69659e-05
3.7596e-05
3.56503e-05
3.17528e-05
2.52335e-05
0.000101351
7.71171e-05
6.27684e-05
5.55786e-05
5.16252e-05
4.84177e-05
4.51976e-05
4.22888e-05
4.06592e-05
3.91719e-05
3.84434e-05
3.78891e-05
3.76734e-05
3.75935e-05
3.78881e-05
3.78331e-05
3.57188e-05
3.44733e-05
2.61528e-05
2.52251e-05
0.000101213
7.71986e-05
6.30024e-05
5.59531e-05
5.21245e-05
4.88932e-05
4.57024e-05
4.27893e-05
4.10206e-05
3.94813e-05
3.86282e-05
3.80345e-05
3.77245e-05
3.75877e-05
3.7881e-05
3.78689e-05
3.57965e-05
3.45924e-05
2.64022e-05
2.51894e-05
9.61378e-05
8.32509e-05
7.77093e-05
7.73707e-05
7.91186e-05
7.85296e-05
7.68786e-05
7.32656e-05
6.64181e-05
6.02668e-05
5.39835e-05
4.93702e-05
4.55086e-05
4.13947e-05
3.93339e-05
3.69076e-05
3.75904e-05
3.55957e-05
3.1922e-05
2.50987e-05
9.24338e-05
9.9614e-05
0.000102145
0.000110693
0.000119881
0.000126186
0.000128748
0.000128895
0.000123693
0.000115102
0.000103078
8.90544e-05
7.27778e-05
6.30261e-05
5.60697e-05
4.57927e-05
4.07042e-05
3.66965e-05
3.45493e-05
2.48869e-05
8.54736e-05
0.000101336
0.000109589
0.000125762
0.000141613
0.000155356
0.000164543
0.000168198
0.000168335
0.00016376
0.000154503
0.000140614
0.000121768
9.44969e-05
7.67492e-05
5.8668e-05
4.66167e-05
3.92585e-05
3.64896e-05
2.45889e-05
7.95823e-05
0.000102489
0.000116919
0.000132932
0.000149733
0.000164805
0.000176807
0.000186469
0.000191115
0.000190946
0.000184913
0.000173618
0.000156919
0.000133784
0.00010678
8.00401e-05
5.69968e-05
4.28994e-05
3.81302e-05
2.43274e-05
6.67119e-05
0.000100443
0.000117593
0.000135099
0.00015132
0.000167463
0.000181403
0.000191071
0.000195942
0.000196112
0.000192324
0.000182966
0.000168177
0.000146621
0.000119316
8.79428e-05
6.25253e-05
4.61297e-05
3.97965e-05
2.37995e-05
5.05945e-05
7.97602e-05
0.000100692
0.000119145
0.000137873
0.00015216
0.000163708
0.000172069
0.000176708
0.000177384
0.000173423
0.000166579
0.00015542
0.000136723
0.00011314
8.28571e-05
5.98583e-05
4.49792e-05
4.17749e-05
2.30944e-05
4.31601e-05
6.80942e-05
8.4553e-05
9.13886e-05
9.81434e-05
0.000103259
0.000107857
0.000112736
0.000116957
0.000119952
0.000120151
0.000118438
0.000111206
0.000103544
8.93032e-05
6.84137e-05
5.2725e-05
4.52699e-05
4.47298e-05
2.21394e-05
3.16788e-05
4.00531e-05
4.29934e-05
4.35789e-05
4.4128e-05
4.50459e-05
4.6497e-05
4.84887e-05
5.08474e-05
5.34151e-05
5.57e-05
5.76377e-05
5.8695e-05
5.83763e-05
5.60725e-05
5.1857e-05
4.79165e-05
4.98834e-05
4.95753e-05
3.53659e-05
4.26251e-05
4.65681e-05
4.84087e-05
4.95682e-05
5.039e-05
5.10475e-05
5.15739e-05
5.20194e-05
5.23858e-05
5.27111e-05
5.30076e-05
5.33024e-05
5.36104e-05
5.40072e-05
5.43761e-05
5.48125e-05
5.54112e-05
5.73215e-05
5.47499e-05
)
;

boundaryField
{
    movingWall
    {
        type            nutkWallFunction;
        Cmu             0.09;
        kappa           0.41;
        E               9.8;
        value           nonuniform List<scalar> 
20
(
0
0
0
1.88717e-07
3.8101e-07
5.16882e-07
6.25347e-07
7.12046e-07
7.853e-07
8.45505e-07
8.98895e-07
9.47526e-07
9.95828e-07
1.04627e-06
1.11114e-06
1.17141e-06
1.24262e-06
1.34018e-06
1.65036e-06
1.23251e-06
)
;
    }
    movingWallBottom
    {
        type            nutkWallFunction;
        Cmu             0.09;
        kappa           0.41;
        E               9.8;
        value           nonuniform List<scalar> 
20
(
0
0
0
1.88803e-07
3.826e-07
5.19762e-07
6.29461e-07
7.16972e-07
7.91045e-07
8.51602e-07
9.05505e-07
9.5413e-07
1.00262e-06
1.05272e-06
1.11739e-06
1.17743e-06
1.2482e-06
1.34537e-06
1.65452e-06
1.23559e-06
)
;
    }
    fixedWalls
    {
        type            nutkWallFunction;
        Cmu             0.09;
        kappa           0.41;
        E               9.8;
        value           nonuniform List<scalar> 
40
(
0
0
0
0
0
0
0
0
0
0
0
0
0
0
0
0
0
0
0
0
1.23559e-06
3.84985e-07
0
0
0
0
0
0
0
0
0
0
0
0
0
0
0
0
3.82423e-07
1.23251e-06
)
;
    }
    frontAndBack
    {
        type            empty;
    }
}


// ************************************************************************* //
