/*--------------------------------*- C++ -*----------------------------------*\
| =========                 |                                                 |
| \\      /  F ield         | OpenFOAM: The Open Source CFD Toolbox           |
|  \\    /   O peration     | Version:  4.1                                   |
|   \\  /    A nd           | Web:      www.OpenFOAM.org                      |
|    \\/     M anipulation  |                                                 |
\*---------------------------------------------------------------------------*/
FoamFile
{
    version     2.0;
    format      ascii;
    class       volScalarField;
    location    "6.5";
    object      p;
}
// * * * * * * * * * * * * * * * * * * * * * * * * * * * * * * * * * * * * * //

dimensions      [0 2 -2 0 0 0 0];

internalField   nonuniform List<scalar> 
400
(
-6.17566e-08
0.000382348
-0.00363407
-0.00751069
-0.0108618
-0.0137256
-0.0161426
-0.0181173
-0.0196684
-0.0208324
-0.0216505
-0.0221261
-0.0222105
-0.0217795
-0.0206198
-0.0183133
-0.0134946
-0.00504286
0.00809328
0.0286722
-0.00604904
-0.00557709
-0.00734048
-0.00987629
-0.0126316
-0.0152005
-0.0173981
-0.0191786
-0.0205692
-0.02162
-0.0223768
-0.0228494
-0.0230105
-0.0227465
-0.0218055
-0.0198284
-0.0164957
-0.0108014
-0.00259782
0.0162484
-0.00685683
-0.00732117
-0.00903389
-0.011396
-0.0139105
-0.0162046
-0.0181268
-0.0196715
-0.0208888
-0.0218248
-0.0225126
-0.0229449
-0.0231068
-0.0228953
-0.0222952
-0.020906
-0.0187022
-0.0149354
-0.0110654
-0.000105032
-0.0082145
-0.00912816
-0.0109005
-0.0131982
-0.015483
-0.0174833
-0.0191205
-0.0204204
-0.0214395
-0.0222235
-0.0228014
-0.0231784
-0.0233405
-0.0232195
-0.0227537
-0.0217452
-0.0202632
-0.0174117
-0.0159746
-0.00958798
-0.00866422
-0.00996536
-0.0118341
-0.0141212
-0.0163146
-0.0181932
-0.0197031
-0.0208765
-0.0217759
-0.0224569
-0.0229553
-0.0232825
-0.0234253
-0.023329
-0.0229337
-0.0221276
-0.0210321
-0.0184122
-0.0174669
-0.0125061
-0.00789013
-0.00962633
-0.0117079
-0.0141356
-0.0164142
-0.0183399
-0.0198684
-0.0210333
-0.0219004
-0.0225323
-0.0229753
-0.0232463
-0.0233332
-0.0231864
-0.0227396
-0.0219139
-0.0206574
-0.0181257
-0.0159575
-0.0111097
-0.00595266
-0.00800904
-0.0104255
-0.0131464
-0.0157094
-0.0178665
-0.0195593
-0.0208251
-0.0217407
-0.0223732
-0.022776
-0.0229753
-0.0229572
-0.0226685
-0.0220542
-0.0209703
-0.0191043
-0.0159505
-0.0120632
-0.00692168
-0.00310255
-0.00548839
-0.00825873
-0.0113592
-0.0143272
-0.0168402
-0.0188077
-0.020257
-0.0212724
-0.0219302
-0.0222941
-0.0223938
-0.0222184
-0.0217247
-0.0207978
-0.0191384
-0.0162463
-0.0117396
-0.00598943
-0.000687944
-0.000156635
-0.0027124
-0.00574141
-0.00916977
-0.012524
-0.0154245
-0.0177264
-0.0194166
-0.0205762
-0.0212955
-0.0216428
-0.0216482
-0.0213146
-0.0205654
-0.0191487
-0.0165963
-0.0123377
-0.00608737
0.00168637
0.00613132
0.00178716
-0.000849153
-0.00401532
-0.00766917
-0.0112743
-0.0143765
-0.016852
-0.0186991
-0.0199847
-0.0207785
-0.0211325
-0.0210725
-0.0206028
-0.019595
-0.0176991
-0.0143098
-0.00882912
-0.00122391
0.00708196
0.0111404
0.00175903
-0.000871997
-0.00403531
-0.00769014
-0.0113003
-0.0144058
-0.0168836
-0.0187327
-0.020019
-0.020813
-0.0211682
-0.0211122
-0.0206446
-0.0196402
-0.0177539
-0.0143828
-0.00893028
-0.0013604
0.00691721
0.0109812
-0.000214893
-0.00275803
-0.00577947
-0.0092094
-0.0125719
-0.0154824
-0.0177966
-0.0194979
-0.0206665
-0.0213906
-0.0217388
-0.0217427
-0.021407
-0.0206597
-0.0192552
-0.0167322
-0.0125244
-0.00634788
0.00133317
0.00579213
-0.00315994
-0.00552944
-0.00829128
-0.0113948
-0.014375
-0.0169058
-0.0188914
-0.0203546
-0.0213808
-0.0220447
-0.0224095
-0.0225069
-0.0223274
-0.0218293
-0.0209017
-0.0192575
-0.0164059
-0.0119651
-0.0063127
-0.00103802
-0.00599042
-0.00803328
-0.0104449
-0.0131738
-0.015754
-0.0179319
-0.0196443
-0.020925
-0.0218501
-0.0224867
-0.0228886
-0.0230824
-0.0230559
-0.0227597
-0.022139
-0.0210576
-0.0192142
-0.0160981
-0.0122871
-0.0071945
-0.00790331
-0.00962861
-0.0117097
-0.0141494
-0.0164483
-0.0183968
-0.0199463
-0.0211274
-0.0220043
-0.0226398
-0.0230809
-0.023345
-0.0234219
-0.0232643
-0.0228072
-0.0219744
-0.0207231
-0.0181987
-0.0160908
-0.0112818
-0.00865427
-0.0099471
-0.011818
-0.0141174
-0.0163322
-0.0182355
-0.0197684
-0.0209595
-0.0218698
-0.0225551
-0.0230519
-0.023372
-0.0235038
-0.023395
-0.0229864
-0.0221681
-0.0210611
-0.0184379
-0.0175351
-0.0125821
-0.00818852
-0.00909484
-0.0108681
-0.0131773
-0.0154832
-0.0175086
-0.0191697
-0.0204886
-0.0215201
-0.02231
-0.0228877
-0.023259
-0.0234116
-0.0232749
-0.0227928
-0.0217664
-0.0202673
-0.0174093
-0.0159776
-0.00959898
-0.00682538
-0.00728003
-0.00899174
-0.0113625
-0.0138946
-0.0162122
-0.0181583
-0.0197233
-0.0209551
-0.0218989
-0.0225881
-0.0230156
-0.0231675
-0.0229421
-0.0223243
-0.0209136
-0.0186892
-0.0149089
-0.0110269
-6.76751e-05
-0.0060223
-0.00553798
-0.00729327
-0.00983225
-0.0126014
-0.0151915
-0.017413
-0.0192158
-0.0206239
-0.0216854
-0.022446
-0.0229155
-0.0230673
-0.0227878
-0.0218266
-0.0198257
-0.0164685
-0.0107536
-0.00252992
0.0163179
1.69416e-05
0.000410257
-0.00359233
-0.00746832
-0.0108309
-0.0137147
-0.0161552
-0.0181524
-0.0197212
-0.0208962
-0.0217177
-0.0221897
-0.0222639
-0.0218172
-0.0206365
-0.0183051
-0.0134575
-0.00498083
0.00817465
0.028761
)
;

boundaryField
{
    movingWall
    {
        type            zeroGradient;
    }
    movingWallBottom
    {
        type            zeroGradient;
    }
    fixedWalls
    {
        type            zeroGradient;
    }
    frontAndBack
    {
        type            empty;
    }
}


// ************************************************************************* //
