/*--------------------------------*- C++ -*----------------------------------*\
| =========                 |                                                 |
| \\      /  F ield         | OpenFOAM: The Open Source CFD Toolbox           |
|  \\    /   O peration     | Version:  4.1                                   |
|   \\  /    A nd           | Web:      www.OpenFOAM.org                      |
|    \\/     M anipulation  |                                                 |
\*---------------------------------------------------------------------------*/
FoamFile
{
    version     2.0;
    format      ascii;
    class       surfaceScalarField;
    location    "6.5";
    object      phi;
}
// * * * * * * * * * * * * * * * * * * * * * * * * * * * * * * * * * * * * * //

dimensions      [0 3 -1 0 0 0 0];

internalField   nonuniform List<scalar> 
760
(
3.2175e-06
-3.21749e-06
5.43249e-06
-2.21499e-06
7.1439e-06
-1.71142e-06
8.58268e-06
-1.43878e-06
9.78733e-06
-1.20465e-06
1.0777e-05
-9.89622e-07
1.15825e-05
-8.05533e-07
1.22421e-05
-6.59622e-07
1.27884e-05
-5.46338e-07
1.32436e-05
-4.55154e-07
1.36202e-05
-3.7664e-07
1.39182e-05
-2.97977e-07
1.41366e-05
-2.18405e-07
1.42391e-05
-1.02467e-07
1.42282e-05
1.08555e-08
1.38707e-05
3.57493e-07
1.31344e-05
7.36384e-07
1.12312e-05
1.90313e-06
7.72625e-06
3.50497e-06
7.72625e-06
1.02803e-06
-4.24553e-06
2.53061e-06
-3.71757e-06
3.92563e-06
-3.10643e-06
5.02868e-06
-2.54183e-06
5.85849e-06
-2.03447e-06
6.47433e-06
-1.60545e-06
6.92827e-06
-1.25948e-06
7.25851e-06
-9.89853e-07
7.49718e-06
-7.85007e-07
7.66525e-06
-6.23232e-07
7.78169e-06
-4.93074e-07
7.84931e-06
-3.65597e-07
7.86769e-06
-2.36787e-07
7.77127e-06
-6.0467e-09
7.57859e-06
2.03537e-07
7.22164e-06
7.14442e-07
6.55301e-06
1.40501e-06
5.36092e-06
3.09522e-06
2.9351e-06
5.93079e-06
1.06614e-05
9.45587e-07
-5.19111e-06
2.09545e-06
-4.86743e-06
3.05485e-06
-4.06583e-06
3.77192e-06
-3.2589e-06
4.27739e-06
-2.53994e-06
4.61455e-06
-1.94262e-06
4.82352e-06
-1.46845e-06
4.93958e-06
-1.10591e-06
4.98865e-06
-8.34071e-07
4.99157e-06
-6.26152e-07
4.95534e-06
-4.5685e-07
4.88547e-06
-2.95727e-07
4.76682e-06
-1.18133e-07
4.62362e-06
1.37156e-07
4.33834e-06
4.88818e-07
3.94448e-06
1.1083e-06
3.26762e-06
2.08187e-06
2.41971e-06
3.94314e-06
1.09635e-06
7.25414e-06
1.17577e-05
7.01097e-07
-5.89221e-06
1.35845e-06
-5.52478e-06
1.93266e-06
-4.64004e-06
2.37295e-06
-3.69919e-06
2.6767e-06
-2.84369e-06
2.86664e-06
-2.13256e-06
2.97222e-06
-1.57403e-06
3.01815e-06
-1.15184e-06
3.02163e-06
-8.3755e-07
2.99419e-06
-5.9872e-07
2.93985e-06
-4.0251e-07
2.85799e-06
-2.13859e-07
2.73905e-06
8.03101e-10
2.57697e-06
2.99231e-07
2.34145e-06
7.24342e-07
2.03495e-06
1.4148e-06
1.55998e-06
2.55684e-06
1.02176e-06
4.48136e-06
4.0767e-07
7.86823e-06
1.21654e-05
3.36695e-07
-6.22891e-06
5.28029e-07
-5.71611e-06
7.22678e-07
-4.83469e-06
8.89663e-07
-3.86617e-06
1.00707e-06
-2.96109e-06
1.0781e-06
-2.2036e-06
1.11343e-06
-1.60936e-06
1.12317e-06
-1.16158e-06
1.11421e-06
-8.28593e-07
1.09055e-06
-5.75056e-07
1.0525e-06
-3.64457e-07
9.97898e-07
-1.5926e-07
9.19469e-07
7.92323e-08
8.14121e-07
4.04579e-07
6.69793e-07
8.68669e-07
4.87578e-07
1.59701e-06
3.11715e-07
2.7327e-06
-9.6096e-08
4.88917e-06
-1.84103e-07
7.95624e-06
1.19813e-05
-2.25908e-07
-6.003e-06
-4.28684e-07
-5.51334e-06
-5.71618e-07
-4.69176e-06
-6.72477e-07
-3.76531e-06
-7.49937e-07
-2.88363e-06
-8.0827e-07
-2.14527e-06
-8.50117e-07
-1.56751e-06
-8.78656e-07
-1.13304e-06
-8.98118e-07
-8.09131e-07
-9.12056e-07
-5.61118e-07
-9.24796e-07
-3.51718e-07
-9.40635e-07
-1.43421e-07
-9.63891e-07
1.02488e-07
-9.91827e-07
4.32514e-07
-1.02329e-06
9.00131e-07
-1.04559e-06
1.61931e-06
-1.0659e-06
2.75302e-06
-9.95269e-07
4.81854e-06
-8.74097e-07
7.83507e-06
1.11072e-05
-7.27258e-07
-5.27574e-06
-1.41957e-06
-4.82102e-06
-1.94207e-06
-4.16926e-06
-2.33877e-06
-3.36861e-06
-2.62699e-06
-2.59542e-06
-2.8288e-06
-1.94346e-06
-2.96529e-06
-1.43102e-06
-3.05267e-06
-1.04566e-06
-3.10477e-06
-7.57033e-07
-3.13096e-06
-5.34928e-07
-3.13895e-06
-3.43724e-07
-3.13547e-06
-1.46902e-07
-3.12346e-06
9.04768e-08
-3.08893e-06
3.97987e-07
-3.02745e-06
8.38649e-07
-2.92235e-06
1.51422e-06
-2.76854e-06
2.59921e-06
-2.39401e-06
4.44401e-06
-1.75507e-06
7.19614e-06
9.3521e-06
-1.30507e-06
-3.97067e-06
-2.48179e-06
-3.6443e-06
-3.42855e-06
-3.2225e-06
-4.15941e-06
-2.63775e-06
-4.69893e-06
-2.0559e-06
-5.08378e-06
-1.55861e-06
-5.35522e-06
-1.15958e-06
-5.54588e-06
-8.54991e-07
-5.67962e-06
-6.23297e-07
-5.7731e-06
-4.41452e-07
-5.83766e-06
-2.79164e-07
-5.88118e-06
-1.03377e-07
-5.89426e-06
1.03559e-07
-5.85322e-06
3.56938e-07
-5.72984e-06
7.15274e-07
-5.48017e-06
1.26455e-06
-5.03292e-06
2.15195e-06
-4.16519e-06
3.57627e-06
-2.49167e-06
5.52262e-06
6.86044e-06
-1.82587e-06
-2.1448e-06
-3.50395e-06
-1.96622e-06
-4.95806e-06
-1.76839e-06
-6.13541e-06
-1.4604e-06
-7.03896e-06
-1.15235e-06
-7.70822e-06
-8.89341e-07
-8.195e-06
-6.72808e-07
-8.55209e-06
-4.979e-07
-8.8182e-06
-3.57191e-07
-9.01532e-06
-2.44325e-07
-9.1529e-06
-1.41582e-07
-9.22639e-06
-2.98905e-08
-9.21077e-06
8.79425e-08
-9.07891e-06
2.25072e-07
-8.78375e-06
4.20113e-07
-8.23369e-06
7.14489e-07
-7.28272e-06
1.20098e-06
-5.68677e-06
1.98033e-06
-3.28038e-06
3.11622e-06
3.58006e-06
-2.17397e-06
2.91679e-08
-4.16911e-06
2.89248e-08
-5.97084e-06
3.3339e-08
-7.46936e-06
3.81211e-08
-8.66169e-06
3.99744e-08
-9.59141e-06
4.03767e-08
-1.03007e-05
3.64788e-08
-1.08302e-05
3.16229e-08
-1.12122e-05
2.48082e-08
-1.14742e-05
1.77046e-08
-1.16262e-05
1.04151e-08
-1.16589e-05
2.72694e-09
-1.15671e-05
-3.78008e-09
-1.13311e-05
-1.09555e-08
-1.08934e-05
-1.76216e-08
-1.01521e-05
-2.67838e-08
-8.91304e-06
-3.8086e-08
-6.87728e-06
-5.54252e-08
-3.68298e-06
-7.80809e-08
-1.02922e-07
-2.16418e-06
2.19335e-06
-4.15178e-06
2.01653e-06
-5.94593e-06
1.82749e-06
-7.43742e-06
1.52961e-06
-8.62261e-06
1.22516e-06
-9.54307e-06
9.60846e-07
-1.0245e-05
7.38423e-07
-1.0769e-05
5.55601e-07
-1.11476e-05
4.03403e-07
-1.14081e-05
2.78195e-07
-1.15598e-05
1.62144e-07
-1.15931e-05
3.59986e-08
-1.15024e-05
-9.45077e-08
-1.12682e-05
-2.45103e-07
-1.08335e-05
-4.52373e-07
-1.00972e-05
-7.63067e-07
-8.86497e-06
-1.27029e-06
-6.83885e-06
-2.08155e-06
-3.6591e-06
-3.25783e-06
-3.76202e-06
-1.81034e-06
4.00369e-06
-3.47638e-06
3.68257e-06
-4.91954e-06
3.27064e-06
-6.08588e-06
2.69596e-06
-6.97877e-06
2.11805e-06
-7.63511e-06
1.61718e-06
-8.10781e-06
1.21112e-06
-8.44935e-06
8.97144e-07
-8.70042e-06
6.54475e-07
-8.88439e-06
4.62158e-07
-9.01189e-06
2.89649e-07
-9.08073e-06
1.04838e-07
-9.06502e-06
-1.10212e-07
-8.93705e-06
-3.73078e-07
-8.64956e-06
-7.39864e-07
-8.11274e-06
-1.29988e-06
-7.18159e-06
-2.20144e-06
-5.61272e-06
-3.65042e-06
-3.23868e-06
-5.63187e-06
-7.0007e-06
-1.29119e-06
5.29488e-06
-2.45893e-06
4.8503e-06
-3.39858e-06
4.2103e-06
-4.12144e-06
3.41882e-06
-4.65111e-06
2.64772e-06
-5.02501e-06
1.99108e-06
-5.28442e-06
1.47053e-06
-5.46256e-06
1.07528e-06
-5.58428e-06
7.76198e-07
-5.66628e-06
5.44156e-07
-5.72038e-06
3.43755e-07
-5.7552e-06
1.39652e-07
-5.76222e-06
-1.03189e-07
-5.71863e-06
-4.16665e-07
-5.59685e-06
-8.61642e-07
-5.35481e-06
-1.54192e-06
-4.92453e-06
-2.63172e-06
-4.08753e-06
-4.48743e-06
-2.45549e-06
-7.2639e-06
-9.45619e-06
-7.1673e-07
6.01161e-06
-1.40132e-06
5.53489e-06
-1.91692e-06
4.7259e-06
-2.30613e-06
3.80803e-06
-2.58605e-06
2.92763e-06
-2.77966e-06
2.18469e-06
-2.90828e-06
1.59915e-06
-2.98841e-06
1.15541e-06
-3.03435e-06
8.22138e-07
-3.05549e-06
5.65295e-07
-3.05966e-06
3.47932e-07
-3.05336e-06
1.3335e-07
-3.03873e-06
-1.17818e-07
-3.00346e-06
-4.51937e-07
-2.94196e-06
-9.2314e-07
-2.83823e-06
-1.64566e-06
-2.68867e-06
-2.78128e-06
-2.3245e-06
-4.8516e-06
-1.71768e-06
-7.87072e-06
-1.11739e-05
-2.1727e-07
6.22888e-06
-4.13172e-07
5.73079e-06
-5.49617e-07
4.86235e-06
-6.42922e-07
3.90134e-06
-7.12929e-07
2.99764e-06
-7.6467e-07
2.23644e-06
-8.0097e-07
1.63545e-06
-8.25152e-07
1.17959e-06
-8.41493e-07
8.38478e-07
-8.53523e-07
5.77325e-07
-8.65568e-07
3.59977e-07
-8.81531e-07
1.49313e-07
-9.05534e-07
-9.38155e-08
-9.35127e-07
-4.22343e-07
-9.69133e-07
-8.89134e-07
-9.95291e-07
-1.6195e-06
-1.01749e-06
-2.75909e-06
-9.56736e-07
-4.91235e-06
-8.50318e-07
-7.97714e-06
-1.20242e-05
3.43114e-07
5.88576e-06
5.40967e-07
5.53294e-06
7.42703e-07
4.66061e-06
9.17081e-07
3.72696e-06
1.04163e-06
2.87309e-06
1.11884e-06
2.15923e-06
1.15893e-06
1.59535e-06
1.17191e-06
1.16661e-06
1.16473e-06
8.45657e-07
1.1415e-06
6.0056e-07
1.10261e-06
3.98869e-07
1.04627e-06
2.05648e-07
9.65704e-07
-1.32462e-08
8.57424e-07
-3.14064e-07
7.09875e-07
-7.41585e-07
5.24474e-07
-1.4341e-06
3.40466e-07
-2.57508e-06
-7.66905e-08
-4.4952e-06
-1.61231e-07
-7.8926e-06
-1.21854e-05
7.04256e-07
5.18151e-06
1.36797e-06
4.86922e-06
1.94912e-06
4.07946e-06
2.39769e-06
3.2784e-06
2.7095e-06
2.56128e-06
2.90615e-06
1.96258e-06
3.01663e-06
1.48488e-06
3.06557e-06
1.11767e-06
3.07029e-06
8.4094e-07
3.04254e-06
6.28311e-07
2.98653e-06
4.54882e-07
2.90214e-06
2.90038e-07
2.77894e-06
1.09948e-07
2.61316e-06
-1.48282e-07
2.37276e-06
-5.01189e-07
2.06071e-06
-1.12205e-06
1.58001e-06
-2.09438e-06
1.04109e-06
-3.95628e-06
4.15308e-07
-7.26682e-06
-1.17701e-05
9.45084e-07
4.23642e-06
2.09896e-06
3.71535e-06
3.06572e-06
3.1127e-06
3.79132e-06
2.5528e-06
4.30529e-06
2.0473e-06
4.65003e-06
1.61784e-06
4.86483e-06
1.27008e-06
4.9847e-06
9.97795e-07
5.0354e-06
7.9024e-07
5.03806e-06
6.2565e-07
4.99978e-06
4.93165e-07
4.92667e-06
3.63142e-07
4.80412e-06
2.325e-07
4.6559e-06
-5.85422e-11
4.36451e-06
-2.098e-07
3.96523e-06
-7.2277e-07
3.28324e-06
-1.41239e-06
2.43067e-06
-3.10371e-06
1.10159e-06
-5.93774e-06
-1.06685e-05
1.02346e-06
3.21296e-06
2.52663e-06
2.21217e-06
3.92685e-06
1.71248e-06
5.03697e-06
1.44268e-06
5.87466e-06
1.20961e-06
6.49792e-06
9.94585e-07
6.95798e-06
8.10016e-07
7.29272e-06
6.63056e-07
7.53405e-06
5.4891e-07
7.70316e-06
4.56537e-07
7.81895e-06
3.77381e-07
7.8846e-06
2.97493e-07
7.89946e-06
2.17637e-07
7.7988e-06
1.00606e-07
7.60149e-06
-1.24972e-08
7.23981e-06
-3.61087e-07
6.5665e-06
-7.39086e-07
5.36968e-06
-1.90688e-06
2.93981e-06
-3.50787e-06
-7.7287e-06
3.21296e-06
5.42514e-06
7.13761e-06
8.58029e-06
9.7899e-06
1.07845e-05
1.15945e-05
1.22576e-05
1.28065e-05
1.3263e-05
1.36404e-05
1.39379e-05
1.41555e-05
1.42561e-05
1.42436e-05
1.38825e-05
1.31435e-05
1.12366e-05
7.7287e-06
)
;

boundaryField
{
    movingWall
    {
        type            calculated;
        value           uniform 0;
    }
    movingWallBottom
    {
        type            calculated;
        value           uniform 0;
    }
    fixedWalls
    {
        type            calculated;
        value           uniform 0;
    }
    frontAndBack
    {
        type            empty;
        value           nonuniform 0();
    }
}


// ************************************************************************* //
