/*--------------------------------*- C++ -*----------------------------------*\
| =========                 |                                                 |
| \\      /  F ield         | OpenFOAM: The Open Source CFD Toolbox           |
|  \\    /   O peration     | Version:  4.1                                   |
|   \\  /    A nd           | Web:      www.OpenFOAM.org                      |
|    \\/     M anipulation  |                                                 |
\*---------------------------------------------------------------------------*/
FoamFile
{
    version     2.0;
    format      ascii;
    class       volVectorField;
    location    "6.5";
    object      U;
}
// * * * * * * * * * * * * * * * * * * * * * * * * * * * * * * * * * * * * * //

dimensions      [0 1 -1 0 0 0 0];

internalField   nonuniform List<vector> 
400
(
(0.0638016 -0.0988873 0)
(0.0776204 -0.0640112 0)
(0.123887 -0.0436035 0)
(0.158557 -0.0340455 0)
(0.185157 -0.0281223 0)
(0.206793 -0.0236631 0)
(0.224341 -0.0200264 0)
(0.239187 -0.0170987 0)
(0.250936 -0.0146488 0)
(0.261088 -0.0126736 0)
(0.268703 -0.0108553 0)
(0.275546 -0.00933004 0)
(0.279809 -0.00760603 0)
(0.283389 -0.00600894 0)
(0.283461 -0.00362016 0)
(0.280092 -0.000413866 0)
(0.269519 0.00142487 0)
(0.250601 0.0118122 0)
(0.188806 0.0225505 0)
(0.172501 0.11743 0)
(0.0157292 -0.0516323 0)
(0.031283 -0.0423151 0)
(0.0644057 -0.0370399 0)
(0.0892458 -0.0318055 0)
(0.108918 -0.026405 0)
(0.123835 -0.0212829 0)
(0.134711 -0.0168625 0)
(0.142683 -0.0133485 0)
(0.148119 -0.0107427 0)
(0.152181 -0.00864901 0)
(0.154519 -0.00700705 0)
(0.156522 -0.00514061 0)
(0.156592 -0.00346835 0)
(0.156582 0.000120745 0)
(0.152189 0.00318674 0)
(0.148893 0.0116324 0)
(0.134306 0.0216526 0)
(0.126953 0.0504515 0)
(0.0653319 0.0941726 0)
(0.089988 0.164507 0)
(0.0111363 -0.10142 0)
(0.0295072 -0.0934582 0)
(0.0514266 -0.0790125 0)
(0.068105 -0.0648809 0)
(0.0807116 -0.0513821 0)
(0.0895251 -0.039754 0)
(0.095037 -0.030474 0)
(0.0981789 -0.0233865 0)
(0.0996478 -0.0180672 0)
(0.100066 -0.0139788 0)
(0.0995633 -0.0106686 0)
(0.0985784 -0.00762007 0)
(0.0963468 -0.0043518 0)
(0.0942409 9.50782e-05 0)
(0.0887471 0.00629878 0)
(0.0845935 0.017892 0)
(0.0692459 0.0354257 0)
(0.0679463 0.0729384 0)
(0.0130091 0.13592 0)
(0.0497457 0.222762 0)
(0.00705691 -0.114145 0)
(0.0205594 -0.106878 0)
(0.0320072 -0.0889477 0)
(0.0428746 -0.070344 0)
(0.0508044 -0.0541775 0)
(0.0559314 -0.0409665 0)
(0.0588544 -0.0305552 0)
(0.0602559 -0.0226246 0)
(0.0606389 -0.0166807 0)
(0.060329 -0.0121505 0)
(0.059457 -0.00845126 0)
(0.0580877 -0.00493505 0)
(0.055987 -0.000960919 0)
(0.0533388 0.00461957 0)
(0.0489527 0.0124129 0)
(0.0449847 0.0254654 0)
(0.0328599 0.0469692 0)
(0.0370151 0.0861082 0)
(-0.00652506 0.155295 0)
(0.0321141 0.250698 0)
(0.00264871 -0.124097 0)
(0.00893037 -0.115602 0)
(0.0114601 -0.09735 0)
(0.0157512 -0.0777258 0)
(0.0190028 -0.0594923 0)
(0.0210828 -0.0442879 0)
(0.0221728 -0.0324105 0)
(0.0225817 -0.0234569 0)
(0.0225257 -0.0168028 0)
(0.0221549 -0.0117672 0)
(0.0215019 -0.00764 0)
(0.0205553 -0.00364889 0)
(0.0191852 0.000973793 0)
(0.017385 0.00722824 0)
(0.0147703 0.0162024 0)
(0.0124685 0.0305001 0)
(0.00429943 0.0534497 0)
(0.012234 0.0945606 0)
(-0.0192884 0.162931 0)
(0.0175077 0.251747 0)
(-0.00544045 -0.124614 0)
(-0.00592521 -0.113746 0)
(-0.0112626 -0.096551 0)
(-0.0131313 -0.077374 0)
(-0.0145083 -0.0592606 0)
(-0.0156475 -0.0440757 0)
(-0.0165461 -0.0321646 0)
(-0.0172313 -0.0232213 0)
(-0.0177108 -0.0165638 0)
(-0.0180682 -0.0114613 0)
(-0.0183617 -0.00718189 0)
(-0.0186712 -0.00296706 0)
(-0.0191221 0.0019525 0)
(-0.0196778 0.00855834 0)
(-0.0203238 0.0180776 0)
(-0.0208832 0.0327234 0)
(-0.0238188 0.0555825 0)
(-0.0140956 0.0970194 0)
(-0.0325207 0.160169 0)
(0.00817664 0.238539 0)
(-0.0117069 -0.112568 0)
(-0.0217292 -0.10444 0)
(-0.035408 -0.0897124 0)
(-0.0442356 -0.0722826 0)
(-0.0503894 -0.0555548 0)
(-0.0549198 -0.0414837 0)
(-0.058069 -0.0304318 0)
(-0.0602509 -0.0220953 0)
(-0.0616126 -0.0158962 0)
(-0.0623893 -0.0111557 0)
(-0.062756 -0.007098 0)
(-0.0628607 -0.00299709 0)
(-0.0627811 0.00191485 0)
(-0.0624234 0.00850787 0)
(-0.0618932 0.0175039 0)
(-0.0609655 0.0311243 0)
(-0.0588822 0.0535448 0)
(-0.0485017 0.0943128 0)
(-0.0503097 0.155042 0)
(-0.00665514 0.211673 0)
(-0.0198931 -0.0919108 0)
(-0.0383792 -0.0848807 0)
(-0.0612398 -0.0744712 0)
(-0.0781333 -0.0606271 0)
(-0.0898224 -0.0471498 0)
(-0.0985679 -0.0356019 0)
(-0.104642 -0.0263916 0)
(-0.109176 -0.0194234 0)
(-0.112313 -0.0141092 0)
(-0.114581 -0.00992952 0)
(-0.116203 -0.00628168 0)
(-0.117374 -0.00248485 0)
(-0.118144 0.00213875 0)
(-0.118404 0.0081704 0)
(-0.117832 0.0169027 0)
(-0.114924 0.0305015 0)
(-0.107392 0.0522148 0)
(-0.0907976 0.0877763 0)
(-0.0674516 0.136779 0)
(-0.0193044 0.171838 0)
(-0.0263796 -0.0597766 0)
(-0.0537541 -0.0556791 0)
(-0.0868744 -0.0496094 0)
(-0.114149 -0.0404233 0)
(-0.133569 -0.0313387 0)
(-0.14889 -0.023934 0)
(-0.159521 -0.0180061 0)
(-0.167765 -0.0133157 0)
(-0.173729 -0.00962173 0)
(-0.178523 -0.00666447 0)
(-0.181866 -0.00393642 0)
(-0.184239 -0.00095369 0)
(-0.185546 0.00274217 0)
(-0.185239 0.00744978 0)
(-0.182137 0.0139806 0)
(-0.174312 0.0239805 0)
(-0.157996 0.0401577 0)
(-0.128932 0.0653979 0)
(-0.0803998 0.0987989 0)
(-0.0454469 0.114343 0)
(-0.0310931 -0.0208082 0)
(-0.0634866 -0.0191277 0)
(-0.103543 -0.0173483 0)
(-0.138645 -0.014593 0)
(-0.163377 -0.011884 0)
(-0.184107 -0.00906027 0)
(-0.199574 -0.00658098 0)
(-0.21186 -0.00463524 0)
(-0.220691 -0.00310325 0)
(-0.227272 -0.00188878 0)
(-0.231407 -0.000799913 0)
(-0.233605 0.0002447 0)
(-0.234153 0.0016987 0)
(-0.232251 0.00330628 0)
(-0.226866 0.0058164 0)
(-0.214652 0.00955099 0)
(-0.191857 0.0157919 0)
(-0.154066 0.02534 0)
(-0.0994048 0.0375503 0)
(-0.0497301 0.0417817 0)
(-0.0309411 0.0218699 0)
(-0.0632183 0.0202072 0)
(-0.103109 0.0186001 0)
(-0.138077 0.0160234 0)
(-0.162705 0.0133681 0)
(-0.183208 0.0105606 0)
(-0.198535 0.00794056 0)
(-0.210683 0.00581687 0)
(-0.219415 0.00403681 0)
(-0.225955 0.00255598 0)
(-0.230065 0.00118196 0)
(-0.232341 -0.000168443 0)
(-0.23278 -0.00189694 0)
(-0.230977 -0.00383124 0)
(-0.225592 -0.00665079 0)
(-0.213509 -0.0108135 0)
(-0.190835 -0.0175854 0)
(-0.153258 -0.0279237 0)
(-0.098799 -0.0410903 0)
(-0.0490184 -0.0463782 0)
(-0.0261555 0.0605946 0)
(-0.0533002 0.0565702 0)
(-0.0862015 0.05068 0)
(-0.113295 0.0417139 0)
(-0.132474 0.0327295 0)
(-0.147577 0.0252493 0)
(-0.157929 0.0191964 0)
(-0.165879 0.014342 0)
(-0.171524 0.0104195 0)
(-0.176025 0.00723413 0)
(-0.179119 0.00427667 0)
(-0.181333 0.00106855 0)
(-0.182573 -0.00283738 0)
(-0.182299 -0.00778991 0)
(-0.179311 -0.014531 0)
(-0.1717 -0.0248018 0)
(-0.155744 -0.04133 0)
(-0.127185 -0.0671331 0)
(-0.0795475 -0.101283 0)
(-0.0442419 -0.117344 0)
(-0.0196772 0.0924389 0)
(-0.0379753 0.0855486 0)
(-0.06071 0.0753499 0)
(-0.0774808 0.0616882 0)
(-0.0889774 0.0482611 0)
(-0.0975262 0.0366407 0)
(-0.103352 0.0272845 0)
(-0.107631 0.0201233 0)
(-0.110534 0.0146094 0)
(-0.11255 0.0102361 0)
(-0.113955 0.00639524 0)
(-0.114921 0.00244224 0)
(-0.115545 -0.00231744 0)
(-0.115681 -0.00845938 0)
(-0.115067 -0.0172627 0)
(-0.11227 -0.0309587 0)
(-0.104999 -0.0528251 0)
(-0.0888402 -0.0887554 0)
(-0.0666878 -0.138409 0)
(-0.0186174 -0.174263 0)
(-0.0115465 0.112866 0)
(-0.0214121 0.104959 0)
(-0.0349748 0.0904733 0)
(-0.0436797 0.0732117 0)
(-0.0496659 0.0565117 0)
(-0.0540271 0.0423458 0)
(-0.0570083 0.0311335 0)
(-0.0590339 0.0226031 0)
(-0.0602595 0.0162024 0)
(-0.0609247 0.0112719 0)
(-0.0612016 0.00704314 0)
(-0.0612358 0.00280452 0)
(-0.0611057 -0.00221786 0)
(-0.0607047 -0.00890025 0)
(-0.0601469 -0.0179845 0)
(-0.059215 -0.0316641 0)
(-0.0572504 -0.054062 0)
(-0.0468759 -0.0948184 0)
(-0.0494064 -0.155693 0)
(-0.00620159 -0.213154 0)
(-0.00529219 0.124713 0)
(-0.00566888 0.114113 0)
(-0.0108873 0.097168 0)
(-0.0126227 0.0781534 0)
(-0.0138489 0.0600666 0)
(-0.0148437 0.0447981 0)
(-0.0156158 0.032738 0)
(-0.0162004 0.0236173 0)
(-0.0166017 0.0167831 0)
(-0.0169099 0.0115163 0)
(-0.0171772 0.00708991 0)
(-0.0174807 0.0027555 0)
(-0.0179404 -0.00225809 0)
(-0.0185177 -0.00893922 0)
(-0.0192039 -0.0185193 0)
(-0.0197941 -0.0332362 0)
(-0.0228665 -0.0561917 0)
(-0.0131151 -0.0976607 0)
(-0.0319359 -0.160821 0)
(0.00840366 -0.239598 0)
(0.00272889 0.124054 0)
(0.00911875 0.115853 0)
(0.0117814 0.0978523 0)
(0.0162105 0.0783767 0)
(0.0196135 0.0601697 0)
(0.0218343 0.0448936 0)
(0.0230395 0.0328895 0)
(0.0235312 0.0237871 0)
(0.023527 0.016983 0)
(0.0231773 0.0118058 0)
(0.0225192 0.0075545 0)
(0.0215469 0.00346204 0)
(0.0201353 -0.00123696 0)
(0.0182872 -0.00755865 0)
(0.0156059 -0.0165842 0)
(0.0132364 -0.0309159 0)
(0.00494363 -0.0538723 0)
(0.0129318 -0.0948951 0)
(-0.0188982 -0.163289 0)
(0.017694 -0.252366 0)
(0.00714214 0.113963 0)
(0.0206926 0.10697 0)
(0.0322557 0.089301 0)
(0.0432678 0.0708268 0)
(0.0513695 0.0546876 0)
(0.0566529 0.0414341 0)
(0.0596989 0.0309349 0)
(0.0611834 0.0228925 0)
(0.0616091 0.0168319 0)
(0.0613078 0.0121903 0)
(0.0604141 0.00839281 0)
(0.0590026 0.00478928 0)
(0.0568311 0.000752159 0)
(0.0541084 -0.00487915 0)
(0.0496265 -0.012713 0)
(0.0455744 -0.0258013 0)
(0.033317 -0.0472928 0)
(0.0373998 -0.086428 0)
(-0.00623318 -0.155743 0)
(0.0322067 -0.250998 0)
(0.0111531 0.101224 0)
(0.0295153 0.0934597 0)
(0.051556 0.0792167 0)
(0.0684 0.065191 0)
(0.0811694 0.0517462 0)
(0.0901515 0.0401058 0)
(0.0958062 0.0307707 0)
(0.0990517 0.0236054 0)
(0.100576 0.0182056 0)
(0.101011 0.0140392 0)
(0.100479 0.0106609 0)
(0.0994443 0.00754862 0)
(0.097132 0.00423119 0)
(0.094948 -0.000257177 0)
(0.0893251 -0.00649188 0)
(0.0850878 -0.0181122 0)
(0.0695935 -0.0356281 0)
(0.0682247 -0.0731532 0)
(0.0131512 -0.136077 0)
(0.0498482 -0.222959 0)
(0.0156652 0.0514584 0)
(0.0311789 0.0422153 0)
(0.0643699 0.0370907 0)
(0.0893286 0.0319551 0)
(0.109144 0.0265831 0)
(0.124218 0.0214566 0)
(0.135231 0.0170133 0)
(0.143323 0.0134613 0)
(0.148832 0.0108191 0)
(0.152944 0.00868538 0)
(0.155273 0.00701519 0)
(0.157261 0.00511163 0)
(0.157261 0.00342173 0)
(0.157183 -0.000203599 0)
(0.152681 -0.00326045 0)
(0.149315 -0.0117466 0)
(0.134603 -0.0217418 0)
(0.127173 -0.0505492 0)
(0.0654689 -0.094275 0)
(0.0900579 -0.164592 0)
(0.0637316 0.0988575 0)
(0.0775204 0.0639728 0)
(0.123737 0.0435779 0)
(0.158452 0.0340407 0)
(0.185127 0.0281337 0)
(0.20687 0.0236799 0)
(0.22451 0.0200493 0)
(0.239455 0.017119 0)
(0.251263 0.0146733 0)
(0.261473 0.0126913 0)
(0.269101 0.0108779 0)
(0.275958 0.00933959 0)
(0.280195 0.00762153 0)
(0.283755 0.00600358 0)
(0.283769 0.00362912 0)
(0.280358 0.000403025 0)
(0.269721 -0.00142114 0)
(0.250752 -0.0118352 0)
(0.188877 -0.0225547 0)
(0.172537 -0.117423 0)
)
;

boundaryField
{
    movingWall
    {
        type            fixedValue;
        value           uniform (1 0 0);
    }
    movingWallBottom
    {
        type            fixedValue;
        value           uniform (1 0 0);
    }
    fixedWalls
    {
        type            noSlip;
    }
    frontAndBack
    {
        type            empty;
    }
}


// ************************************************************************* //
