/*--------------------------------*- C++ -*----------------------------------*\
| =========                 |                                                 |
| \\      /  F ield         | OpenFOAM: The Open Source CFD Toolbox           |
|  \\    /   O peration     | Version:  4.1                                   |
|   \\  /    A nd           | Web:      www.OpenFOAM.org                      |
|    \\/     M anipulation  |                                                 |
\*---------------------------------------------------------------------------*/
FoamFile
{
    version     2.0;
    format      ascii;
    class       volScalarField;
    location    "3.5";
    object      epsilon;
}
// * * * * * * * * * * * * * * * * * * * * * * * * * * * * * * * * * * * * * //

dimensions      [0 2 -3 0 0 0 0];

internalField   nonuniform List<scalar> 
400
(
0.0389257
0.0676358
0.0876631
0.0967257
0.102969
0.108031
0.112469
0.116446
0.119883
0.12299
0.125658
0.1282
0.130678
0.133208
0.136603
0.139691
0.143369
0.148341
0.165089
0.145076
0.00939166
0.00741987
0.00761489
0.00796635
0.00845157
0.00913636
0.00995717
0.0110053
0.0121588
0.0135345
0.0148864
0.0165218
0.01793
0.0198358
0.0211341
0.0250034
0.0305908
0.0439353
0.0722644
0.108137
0.0105206
0.00517685
0.00345632
0.00284076
0.00265678
0.00270165
0.00288289
0.0032765
0.00381223
0.00447555
0.00516179
0.00591347
0.00654604
0.00722995
0.00760195
0.00839929
0.0100842
0.0161787
0.0347547
0.080027
0.0112081
0.0043706
0.00276181
0.00231915
0.0022563
0.00237237
0.00266629
0.00310835
0.0035985
0.00408132
0.0044689
0.00473895
0.00483301
0.00484381
0.00472516
0.00477808
0.00540064
0.00918692
0.0228665
0.0656819
0.0115204
0.00409703
0.00271254
0.00249183
0.00266315
0.0030309
0.00345163
0.00388144
0.00425416
0.00451429
0.00459571
0.00451013
0.00424118
0.00385878
0.00343117
0.00324642
0.00367381
0.00686439
0.0183172
0.0570636
0.0115931
0.00407383
0.00313343
0.00303332
0.00342142
0.00390652
0.00436065
0.00472674
0.00493112
0.00496462
0.00476519
0.0043662
0.00380906
0.00318767
0.00268686
0.0025371
0.00321658
0.00651035
0.0178395
0.0503826
0.0116015
0.00482199
0.00370861
0.00358256
0.00408065
0.00468891
0.00515209
0.00541802
0.00550226
0.00535518
0.0049435
0.0043543
0.0036746
0.0030475
0.00274986
0.0027248
0.00366865
0.00725951
0.0186894
0.0442781
0.0116769
0.00548791
0.00405093
0.00384137
0.00436291
0.00502515
0.00547023
0.00568109
0.00572651
0.00546897
0.00501915
0.00448735
0.0039805
0.00371091
0.00363082
0.00396526
0.00547416
0.00967482
0.0209142
0.0376949
0.0116542
0.00620923
0.00412558
0.00360123
0.00358872
0.00400742
0.0042878
0.00453389
0.00466109
0.00472168
0.00478913
0.00489346
0.00511571
0.00550837
0.00622205
0.00751189
0.00997209
0.0144696
0.0217114
0.0297623
0.0114472
0.00660512
0.00412804
0.00326594
0.00307285
0.0030725
0.00330457
0.00355968
0.00391063
0.00433296
0.00485961
0.00551899
0.00635548
0.00745112
0.00890338
0.0108837
0.0135548
0.0167692
0.0183424
0.0168043
0.0114336
0.00660818
0.00412777
0.00326378
0.00306994
0.00306964
0.00330378
0.00355887
0.00391066
0.00433206
0.00485754
0.00551506
0.00634805
0.00743999
0.00888843
0.0108671
0.0135442
0.0168013
0.0184054
0.0169619
0.0116335
0.0062127
0.00411832
0.00358399
0.00356732
0.00397975
0.00426649
0.00451434
0.00464699
0.00471019
0.00477272
0.00487244
0.00508527
0.00546781
0.00616515
0.00744325
0.00989132
0.0144004
0.0217313
0.0299281
0.0116477
0.00548812
0.00404201
0.00382683
0.00433897
0.00499936
0.00544406
0.00565525
0.00570155
0.00544999
0.00500096
0.00447122
0.00396159
0.00368621
0.00360333
0.00392958
0.00542639
0.00960998
0.0208558
0.0377743
0.0115698
0.00482369
0.00370349
0.00357459
0.00406731
0.00467501
0.00513575
0.00539809
0.00548032
0.00533265
0.00492147
0.00433584
0.00366037
0.00303515
0.00273735
0.00271125
0.0036485
0.00722512
0.0186458
0.0443399
0.0115592
0.00407391
0.00313561
0.00303556
0.00342407
0.00390883
0.00435883
0.00471951
0.00491977
0.00495142
0.00475194
0.00435519
0.00380104
0.00318247
0.00268252
0.00253218
0.00320736
0.0064877
0.0178001
0.0504142
0.0114849
0.00409592
0.00271427
0.002498
0.00267114
0.00303989
0.00345744
0.0038826
0.00425089
0.00450794
0.00458766
0.00450224
0.00423417
0.00385334
0.00342672
0.00324268
0.00366727
0.00684707
0.0182784
0.0570758
0.0111725
0.0043666
0.00276328
0.00232268
0.00226092
0.00237644
0.00266806
0.00310602
0.00359176
0.00407101
0.00445567
0.0047249
0.00481825
0.0048302
0.0047127
0.00476681
0.00538878
0.00916951
0.0228507
0.0656699
0.0104853
0.00516696
0.00345471
0.00284181
0.00265766
0.00270097
0.0028784
0.00326498
0.00379249
0.00444792
0.00512625
0.00587312
0.00650163
0.00718731
0.00756192
0.0083643
0.0100549
0.0161517
0.0347342
0.0800015
0.00936779
0.00740789
0.00760657
0.00795631
0.00843532
0.00911211
0.00992205
0.0109594
0.0120987
0.0134633
0.014801
0.016427
0.0178261
0.0197239
0.0210274
0.0249141
0.0305105
0.0438696
0.0722201
0.10807
0.0389247
0.0676717
0.0876975
0.0967376
0.102941
0.107967
0.112363
0.116314
0.119719
0.122811
0.125458
0.127995
0.130464
0.133
0.136397
0.139489
0.143176
0.148156
0.164928
0.144967
)
;

boundaryField
{
    movingWall
    {
        Cmu             0.09;
        kappa           0.41;
        E               9.8;
        type            epsilonWallFunction;
        value           nonuniform List<scalar> 
20
(
0.0389247
0.0676717
0.0876975
0.0967376
0.102941
0.107967
0.112363
0.116314
0.119719
0.122811
0.125458
0.127995
0.130464
0.133
0.136397
0.139489
0.143176
0.148156
0.164928
0.144967
)
;
    }
    movingWallBottom
    {
        Cmu             0.09;
        kappa           0.41;
        E               9.8;
        type            epsilonWallFunction;
        value           nonuniform List<scalar> 
20
(
0.0389257
0.0676358
0.0876631
0.0967257
0.102969
0.108031
0.112469
0.116446
0.119883
0.12299
0.125658
0.1282
0.130678
0.133208
0.136603
0.139691
0.143369
0.148341
0.165089
0.145076
)
;
    }
    fixedWalls
    {
        Cmu             0.09;
        kappa           0.41;
        E               9.8;
        type            epsilonWallFunction;
        value           nonuniform List<scalar> 
40
(
0.0389257
0.00939166
0.0105206
0.0112081
0.0115204
0.0115931
0.0116015
0.0116769
0.0116542
0.0114472
0.0114336
0.0116335
0.0116477
0.0115698
0.0115592
0.0114849
0.0111725
0.0104853
0.00936779
0.0389247
0.145076
0.108137
0.080027
0.0656819
0.0570636
0.0503826
0.0442781
0.0376949
0.0297623
0.0168043
0.0169619
0.0299281
0.0377743
0.0443399
0.0504142
0.0570758
0.0656699
0.0800015
0.10807
0.144967
)
;
    }
    frontAndBack
    {
        type            empty;
    }
}


// ************************************************************************* //
