/*--------------------------------*- C++ -*----------------------------------*\
| =========                 |                                                 |
| \\      /  F ield         | OpenFOAM: The Open Source CFD Toolbox           |
|  \\    /   O peration     | Version:  4.1                                   |
|   \\  /    A nd           | Web:      www.OpenFOAM.org                      |
|    \\/     M anipulation  |                                                 |
\*---------------------------------------------------------------------------*/
FoamFile
{
    version     2.0;
    format      ascii;
    class       volScalarField;
    location    "3.5";
    object      k;
}
// * * * * * * * * * * * * * * * * * * * * * * * * * * * * * * * * * * * * * //

dimensions      [0 2 -2 0 0 0 0];

internalField   nonuniform List<scalar> 
400
(
0.00389239
0.00562517
0.00668685
0.00714003
0.00744391
0.00768587
0.00789483
0.00807983
0.00823795
0.00837966
0.00850041
0.0086147
0.00872537
0.00883772
0.00898724
0.0091222
0.00928173
0.00949515
0.0101972
0.0093556
0.00150928
0.00151242
0.00163382
0.00169259
0.0017218
0.00176365
0.00182627
0.00192687
0.00205319
0.00221141
0.00237782
0.00257193
0.0027399
0.00294757
0.0030644
0.00333249
0.00363722
0.00440735
0.00619132
0.00769133
0.00162819
0.00141274
0.00139437
0.00136809
0.00137037
0.00139137
0.00145316
0.00157955
0.00174496
0.00193587
0.00212509
0.00229314
0.00241737
0.00247613
0.00244995
0.00237817
0.00230921
0.00260945
0.00395444
0.00629294
0.00169839
0.00139315
0.0013299
0.00132307
0.00136599
0.00149561
0.00171718
0.00196371
0.00219981
0.00239802
0.00252854
0.00257647
0.00254925
0.00245876
0.0022647
0.00203207
0.00183267
0.00202976
0.00310848
0.00551651
0.00172987
0.00152934
0.00143893
0.00145357
0.00160123
0.00183992
0.00209491
0.00234578
0.00255313
0.00268252
0.00271948
0.00266716
0.0025144
0.00228936
0.00199169
0.00171687
0.00155428
0.00180656
0.00281046
0.00502282
0.00173723
0.00168656
0.00157077
0.00159758
0.00183374
0.00211479
0.00237334
0.00258443
0.00272688
0.00278093
0.00272792
0.00256476
0.00230841
0.0019855
0.00164128
0.00138968
0.00130967
0.00164323
0.00268727
0.00462275
0.00173814
0.00189677
0.00169751
0.00169386
0.00193549
0.00223325
0.00248165
0.00264281
0.00270368
0.0026819
0.00253518
0.00229232
0.0019758
0.00162459
0.00135174
0.00124633
0.00125114
0.00167971
0.00272121
0.00424141
0.0017457
0.00211751
0.00174942
0.00172274
0.00192853
0.00215604
0.0022992
0.00236126
0.00236714
0.00224485
0.00206187
0.00182789
0.00159089
0.00140406
0.00131498
0.00128401
0.00139312
0.00188541
0.00285816
0.00380986
0.00174341
0.0023179
0.0016287
0.00144714
0.0014416
0.00154423
0.00159391
0.00161531
0.00161631
0.00155916
0.001513
0.00147286
0.0014568
0.00145501
0.00151951
0.00164942
0.00192495
0.0023822
0.00290946
0.00325458
0.00172286
0.00243876
0.0015943
0.00129411
0.00120678
0.00118789
0.00118893
0.00123282
0.00126767
0.00133067
0.00139732
0.00148972
0.00159623
0.00173632
0.00190891
0.00212312
0.00238153
0.00258786
0.00266715
0.00222328
0.00172149
0.00243868
0.00159423
0.00129366
0.00120621
0.00118743
0.00118935
0.00123318
0.00126832
0.00133107
0.00139729
0.00148938
0.00159526
0.00173469
0.00190685
0.00212091
0.00238024
0.0025908
0.00267293
0.00223722
0.00174135
0.00231773
0.00162605
0.00144171
0.00143489
0.00153652
0.00158929
0.00161261
0.00161487
0.00156136
0.00151307
0.00147194
0.00145463
0.00145195
0.00151212
0.00164136
0.00191493
0.00237481
0.00291156
0.0032667
0.00174279
0.00211548
0.00174367
0.00171527
0.00191777
0.00214786
0.00229305
0.00235684
0.00236405
0.00224706
0.0020653
0.00183367
0.00159534
0.00140592
0.00131537
0.00128373
0.00138969
0.0018804
0.00285306
0.00381522
0.00173498
0.00189438
0.00169205
0.00168699
0.00192754
0.00222564
0.00247369
0.00263526
0.00269664
0.00267763
0.00253319
0.00229328
0.00197914
0.00162941
0.00135506
0.00124849
0.00125154
0.00167805
0.00271814
0.00424537
0.00173385
0.00168373
0.00156586
0.00159158
0.00182682
0.00210789
0.00236567
0.00257619
0.00271889
0.00277427
0.00272343
0.00256281
0.00230911
0.00198825
0.00164557
0.00139384
0.00131306
0.00164272
0.00268451
0.00462469
0.00172632
0.00152632
0.00143419
0.00144809
0.00159545
0.00183378
0.00208745
0.00233717
0.00254434
0.00267432
0.00271274
0.00266212
0.00251153
0.0022889
0.0019927
0.00171875
0.0015553
0.00180569
0.00280728
0.00502353
0.00169479
0.00138948
0.00132484
0.00131734
0.00135978
0.00148824
0.0017082
0.00195338
0.00218885
0.00238717
0.00251847
0.00256797
0.00254179
0.00245296
0.00226111
0.00202996
0.00183068
0.00202686
0.00310561
0.00551583
0.00162454
0.00140885
0.00138902
0.00136219
0.00136422
0.00138445
0.00144472
0.00156852
0.00173169
0.00192093
0.00210911
0.00227756
0.00240236
0.00246373
0.00243871
0.00236917
0.0023026
0.00260353
0.0039516
0.0062916
0.00150671
0.00150906
0.00162904
0.00168704
0.00171573
0.00175674
0.0018182
0.00191733
0.00204179
0.00219847
0.00236298
0.00255599
0.00272271
0.00293001
0.00304734
0.00331719
0.00362409
0.00439794
0.00618752
0.00768814
0.00389233
0.00562719
0.00668862
0.00714064
0.00744259
0.00768284
0.00788989
0.00807373
0.00823048
0.00837157
0.0084914
0.00860553
0.00871582
0.00882849
0.00897822
0.0091134
0.00927338
0.00948723
0.0101906
0.00935092
)
;

boundaryField
{
    movingWall
    {
        type            kqRWallFunction;
        value           nonuniform List<scalar> 
20
(
0.00389233
0.00562719
0.00668862
0.00714064
0.00744259
0.00768284
0.00788989
0.00807373
0.00823048
0.00837157
0.0084914
0.00860553
0.00871582
0.00882849
0.00897822
0.0091134
0.00927338
0.00948723
0.0101906
0.00935092
)
;
    }
    movingWallBottom
    {
        type            kqRWallFunction;
        value           nonuniform List<scalar> 
20
(
0.00389239
0.00562517
0.00668685
0.00714003
0.00744391
0.00768587
0.00789483
0.00807983
0.00823795
0.00837966
0.00850041
0.0086147
0.00872537
0.00883772
0.00898724
0.0091222
0.00928173
0.00949515
0.0101972
0.0093556
)
;
    }
    fixedWalls
    {
        type            kqRWallFunction;
        value           nonuniform List<scalar> 
40
(
0.00389239
0.00150928
0.00162819
0.00169839
0.00172987
0.00173723
0.00173814
0.0017457
0.00174341
0.00172286
0.00172149
0.00174135
0.00174279
0.00173498
0.00173385
0.00172632
0.00169479
0.00162454
0.00150671
0.00389233
0.0093556
0.00769133
0.00629294
0.00551651
0.00502282
0.00462275
0.00424141
0.00380986
0.00325458
0.00222328
0.00223722
0.0032667
0.00381522
0.00424537
0.00462469
0.00502353
0.00551583
0.0062916
0.00768814
0.00935092
)
;
    }
    frontAndBack
    {
        type            empty;
    }
}


// ************************************************************************* //
