/*--------------------------------*- C++ -*----------------------------------*\
| =========                 |                                                 |
| \\      /  F ield         | OpenFOAM: The Open Source CFD Toolbox           |
|  \\    /   O peration     | Version:  4.1                                   |
|   \\  /    A nd           | Web:      www.OpenFOAM.org                      |
|    \\/     M anipulation  |                                                 |
\*---------------------------------------------------------------------------*/
FoamFile
{
    version     2.0;
    format      ascii;
    class       volScalarField;
    location    "3.5";
    object      nut;
}
// * * * * * * * * * * * * * * * * * * * * * * * * * * * * * * * * * * * * * //

dimensions      [0 2 -1 0 0 0 0];

internalField   nonuniform List<scalar> 
400
(
3.50299e-05
4.21054e-05
4.5906e-05
4.74352e-05
4.84327e-05
4.92129e-05
4.98765e-05
5.0457e-05
5.09477e-05
5.13839e-05
5.17525e-05
5.20997e-05
5.24334e-05
5.27707e-05
5.32153e-05
5.36136e-05
5.4081e-05
5.46998e-05
5.66876e-05
5.4299e-05
2.18293e-05
2.77454e-05
3.15492e-05
3.2366e-05
3.15698e-05
3.06404e-05
3.01466e-05
3.0363e-05
3.12039e-05
3.25191e-05
3.41832e-05
3.60334e-05
3.76819e-05
3.94204e-05
3.99899e-05
3.99743e-05
3.89215e-05
3.97909e-05
4.77402e-05
4.92345e-05
2.26784e-05
3.4698e-05
5.06269e-05
5.92979e-05
6.36152e-05
6.44907e-05
6.59232e-05
6.85328e-05
7.18841e-05
7.5361e-05
7.87402e-05
8.00315e-05
8.03434e-05
7.63225e-05
7.10609e-05
6.06021e-05
4.75916e-05
3.78789e-05
4.04948e-05
4.45362e-05
2.31624e-05
3.99665e-05
5.76347e-05
6.79332e-05
7.44284e-05
8.48591e-05
9.95332e-05
0.000111652
0.00012103
0.000126808
0.00012876
0.00012607
0.000121018
0.000112328
9.76897e-05
7.77797e-05
5.59714e-05
4.03611e-05
3.80311e-05
4.1699e-05
2.33776e-05
5.13782e-05
6.86981e-05
7.63125e-05
8.66471e-05
0.000100524
0.000114432
0.000127593
0.000137903
0.000143463
0.000144832
0.000141955
0.000134161
0.000122242
0.00010405
8.17169e-05
5.91809e-05
4.27903e-05
3.88094e-05
3.97904e-05
2.34291e-05
6.28408e-05
7.08672e-05
7.57271e-05
8.84524e-05
0.000103035
0.000116255
0.000127178
0.000135716
0.000140196
0.000140548
0.000135592
0.000125907
0.000111303
9.02326e-05
6.85072e-05
4.7992e-05
3.7328e-05
3.64319e-05
3.81736e-05
2.34368e-05
6.71498e-05
6.99287e-05
7.20779e-05
8.26217e-05
9.57291e-05
0.000107582
0.00011602
0.000119567
0.00012088
0.000117011
0.000108611
9.56133e-05
7.79445e-05
5.98024e-05
5.13065e-05
3.84017e-05
3.49789e-05
3.56591e-05
3.65658e-05
2.34883e-05
7.35337e-05
6.79952e-05
6.95339e-05
7.67222e-05
8.32541e-05
8.69742e-05
8.83279e-05
8.80645e-05
8.29298e-05
7.62313e-05
6.70119e-05
5.72252e-05
4.78114e-05
4.28622e-05
3.74201e-05
3.19083e-05
3.30682e-05
3.51539e-05
3.4656e-05
2.34726e-05
7.78744e-05
5.78679e-05
5.23374e-05
5.21185e-05
5.35549e-05
5.33253e-05
5.17941e-05
5.04434e-05
4.63368e-05
4.30195e-05
3.98977e-05
3.73367e-05
3.45902e-05
3.33976e-05
3.25952e-05
3.34422e-05
3.52975e-05
3.50897e-05
3.20307e-05
2.33368e-05
8.10401e-05
5.54166e-05
4.61508e-05
4.26536e-05
4.13336e-05
3.84985e-05
3.84266e-05
3.69838e-05
3.67791e-05
3.61604e-05
3.61901e-05
3.60814e-05
3.64151e-05
3.68347e-05
3.72747e-05
3.76584e-05
3.59427e-05
3.49046e-05
2.64736e-05
2.33277e-05
8.09975e-05
5.54151e-05
4.61488e-05
4.26541e-05
4.13398e-05
3.85346e-05
3.84578e-05
3.70211e-05
3.68089e-05
3.61742e-05
3.61997e-05
3.60797e-05
3.64009e-05
3.6817e-05
3.7254e-05
3.7647e-05
3.59556e-05
3.4936e-05
2.65574e-05
2.34588e-05
7.78191e-05
5.77816e-05
5.21955e-05
5.19442e-05
5.339e-05
5.32818e-05
5.18451e-05
5.05062e-05
4.65812e-05
4.31712e-05
4.00199e-05
3.74485e-05
3.47003e-05
3.33788e-05
3.25752e-05
3.33652e-05
3.52471e-05
3.51082e-05
3.2091e-05
2.34689e-05
7.339e-05
6.76978e-05
6.91939e-05
7.62869e-05
8.30501e-05
8.69251e-05
8.83993e-05
8.82194e-05
8.33825e-05
7.67639e-05
6.768e-05
5.78199e-05
4.82598e-05
4.32149e-05
3.77439e-05
3.20306e-05
3.31146e-05
3.51269e-05
3.46806e-05
2.34157e-05
6.6957e-05
6.95754e-05
7.16545e-05
8.22131e-05
9.53611e-05
0.000107233
0.000115785
0.000119421
0.000121004
0.00011735
0.000109165
9.63096e-05
7.87271e-05
6.03711e-05
5.17419e-05
3.86385e-05
3.50759e-05
3.5662e-05
3.6583e-05
2.34066e-05
6.26292e-05
7.03765e-05
7.51037e-05
8.77188e-05
0.000102304
0.000115553
0.000126562
0.000135233
0.000139897
0.000140476
0.000135727
0.00012625
0.000111795
9.08509e-05
6.90514e-05
4.83796e-05
3.74352e-05
3.64377e-05
3.81816e-05
2.33538e-05
5.11896e-05
6.82024e-05
7.55511e-05
8.57648e-05
9.95591e-05
0.000113428
0.000126619
0.00013706
0.000142788
0.000144367
0.000141667
0.000134076
0.000122366
0.000104291
8.19907e-05
5.93648e-05
4.28571e-05
3.8804e-05
3.97931e-05
2.31379e-05
3.97929e-05
5.71668e-05
6.72432e-05
7.3603e-05
8.38801e-05
9.8429e-05
0.000110564
0.000120051
0.000125982
0.000128116
0.000125612
0.000120679
0.000112114
9.76375e-05
7.78019e-05
5.59728e-05
4.03222e-05
3.7987e-05
4.16963e-05
2.26528e-05
3.45731e-05
5.02629e-05
5.87654e-05
6.30248e-05
6.38673e-05
6.52615e-05
6.78181e-05
7.11637e-05
7.46634e-05
7.80982e-05
7.94902e-05
7.98909e-05
7.60085e-05
7.07835e-05
6.03954e-05
4.74574e-05
3.77702e-05
4.04603e-05
4.45314e-05
2.18106e-05
2.76669e-05
3.13993e-05
3.21945e-05
3.14077e-05
3.04818e-05
2.99864e-05
3.01891e-05
3.10116e-05
3.23096e-05
3.39523e-05
3.57935e-05
3.74274e-05
3.91729e-05
3.97465e-05
3.975e-05
3.87428e-05
3.96805e-05
4.77109e-05
4.92241e-05
3.50297e-05
4.21133e-05
4.59122e-05
4.74374e-05
4.84287e-05
4.92035e-05
4.98612e-05
5.04382e-05
5.09247e-05
5.13592e-05
5.17251e-05
5.20719e-05
5.24045e-05
5.2743e-05
5.31884e-05
5.35876e-05
5.40565e-05
5.46768e-05
5.66689e-05
5.42852e-05
)
;

boundaryField
{
    movingWall
    {
        type            nutkWallFunction;
        Cmu             0.09;
        kappa           0.41;
        E               9.8;
        value           nonuniform List<scalar> 
20
(
0
0
0
2.79251e-08
1.93136e-07
3.21839e-07
4.30909e-07
5.26374e-07
6.06785e-07
6.78417e-07
7.38702e-07
7.9567e-07
8.50308e-07
9.05718e-07
9.7872e-07
1.04403e-06
1.12061e-06
1.22179e-06
1.5456e-06
1.15745e-06
)
;
    }
    movingWallBottom
    {
        type            nutkWallFunction;
        Cmu             0.09;
        kappa           0.41;
        E               9.8;
        value           nonuniform List<scalar> 
20
(
0
0
0
2.75864e-08
1.93849e-07
3.23446e-07
4.33491e-07
5.29522e-07
6.10597e-07
6.82502e-07
7.43218e-07
8.00229e-07
8.55023e-07
9.10237e-07
9.83099e-07
1.04827e-06
1.12458e-06
1.22551e-06
1.5486e-06
1.15967e-06
)
;
    }
    fixedWalls
    {
        type            nutkWallFunction;
        Cmu             0.09;
        kappa           0.41;
        E               9.8;
        value           nonuniform List<scalar> 
40
(
0
0
0
0
0
0
0
0
0
0
0
0
0
0
0
0
0
0
0
0
1.15967e-06
3.26345e-07
0
0
0
0
0
0
0
0
0
0
0
0
0
0
0
0
3.2465e-07
1.15745e-06
)
;
    }
    frontAndBack
    {
        type            empty;
    }
}


// ************************************************************************* //
