/*--------------------------------*- C++ -*----------------------------------*\
| =========                 |                                                 |
| \\      /  F ield         | OpenFOAM: The Open Source CFD Toolbox           |
|  \\    /   O peration     | Version:  4.1                                   |
|   \\  /    A nd           | Web:      www.OpenFOAM.org                      |
|    \\/     M anipulation  |                                                 |
\*---------------------------------------------------------------------------*/
FoamFile
{
    version     2.0;
    format      ascii;
    class       volScalarField;
    location    "3.5";
    object      p;
}
// * * * * * * * * * * * * * * * * * * * * * * * * * * * * * * * * * * * * * //

dimensions      [0 2 -2 0 0 0 0];

internalField   nonuniform List<scalar> 
400
(
8.66483e-08
0.00030268
-0.00416571
-0.00861024
-0.0125016
-0.015776
-0.0184214
-0.0204459
-0.0219023
-0.022878
-0.0234538
-0.023673
-0.0235054
-0.0228499
-0.0214974
-0.0190217
-0.0139893
-0.00519757
0.00847455
0.0295917
-0.00603987
-0.00566568
-0.00791102
-0.0110429
-0.0143186
-0.0172527
-0.0196443
-0.0214613
-0.0227627
-0.023638
-0.0241713
-0.0244072
-0.024339
-0.0238692
-0.0227887
-0.0207321
-0.0173383
-0.0115037
-0.00295372
0.0164103
-0.00718839
-0.00783676
-0.0100335
-0.0129539
-0.0159193
-0.0184907
-0.0205105
-0.0219995
-0.0230563
-0.0237672
-0.0242056
-0.024384
-0.0243331
-0.0239871
-0.0232883
-0.0218959
-0.0197439
-0.0160153
-0.012005
-0.000713789
-0.00890618
-0.0100368
-0.0122695
-0.0150916
-0.0177699
-0.019987
-0.021672
-0.0228776
-0.0237087
-0.0242541
-0.0245781
-0.0247086
-0.0246477
-0.0243352
-0.0237707
-0.0227574
-0.0213812
-0.0186331
-0.0171773
-0.0106257
-0.00956616
-0.011103
-0.0134448
-0.0162321
-0.0187598
-0.0208057
-0.0223282
-0.023384
-0.0240782
-0.0245051
-0.0247318
-0.0247919
-0.0247129
-0.0244437
-0.0239537
-0.023128
-0.0221542
-0.0196334
-0.0186707
-0.0136245
-0.00876753
-0.0107516
-0.0133177
-0.0162767
-0.018901
-0.0209874
-0.0225158
-0.0235576
-0.0242192
-0.0246006
-0.0247801
-0.024796
-0.0246579
-0.0243411
-0.0238053
-0.0229716
-0.0218332
-0.0193096
-0.0170588
-0.0120836
-0.00656184
-0.00886303
-0.0117932
-0.015095
-0.0180623
-0.0204272
-0.0221547
-0.0233235
-0.0240562
-0.0244578
-0.0246156
-0.0245816
-0.0243604
-0.0239444
-0.0232804
-0.0222116
-0.0204085
-0.0171645
-0.0130704
-0.00768966
-0.00323572
-0.00584038
-0.00917006
-0.0129271
-0.0163865
-0.0191887
-0.0212614
-0.0226717
-0.0235517
-0.0240172
-0.0241663
-0.0240656
-0.0237393
-0.0231678
-0.0222242
-0.02058
-0.0176612
-0.0129456
-0.00685221
-0.0012161
0.000206325
-0.00250106
-0.00608946
-0.0102272
-0.0141597
-0.017449
-0.0199566
-0.0216968
-0.0227906
-0.0233687
-0.0235416
-0.0233841
-0.0229367
-0.0221197
-0.0206759
-0.0180873
-0.0136655
-0.00706633
0.00115285
0.00591708
0.00240593
-0.000329401
-0.00402251
-0.00837293
-0.0125828
-0.016126
-0.0188726
-0.0208375
-0.0221115
-0.0228021
-0.023007
-0.0228029
-0.0222263
-0.0211485
-0.0191919
-0.015673
-0.00990716
-0.00185434
0.00692638
0.0112559
0.00241296
-0.000317011
-0.00400754
-0.00835936
-0.012574
-0.0161219
-0.018873
-0.0208425
-0.0221208
-0.0228149
-0.0230227
-0.0228199
-0.0222444
-0.0211696
-0.0192172
-0.0157041
-0.00994631
-0.00190319
0.00687057
0.0112029
0.000236332
-0.00246162
-0.00604569
-0.0101878
-0.0141307
-0.0174328
-0.0199552
-0.0217099
-0.0228169
-0.0234056
-0.0235869
-0.0234347
-0.0229893
-0.0221741
-0.0207328
-0.0181512
-0.0137424
-0.00716309
0.00103075
0.00580255
-0.00318548
-0.00578104
-0.00910891
-0.0128746
-0.0163502
-0.0191718
-0.021264
-0.0226919
-0.0235869
-0.0240645
-0.0242227
-0.0241288
-0.0238051
-0.0232336
-0.0222888
-0.0206462
-0.0177359
-0.0130368
-0.0069703
-0.00133921
-0.00650114
-0.00879549
-0.0117271
-0.0150405
-0.0180269
-0.0204132
-0.0221614
-0.0233483
-0.0240959
-0.0245094
-0.0246759
-0.0246479
-0.0244295
-0.0240134
-0.0233471
-0.0222759
-0.020475
-0.0172374
-0.0131629
-0.00779433
-0.00870481
-0.0106842
-0.0132537
-0.016225
-0.0188688
-0.0209766
-0.0225254
-0.023585
-0.0242611
-0.0246539
-0.0248417
-0.0248628
-0.0247275
-0.0244106
-0.023872
-0.0230335
-0.0218918
-0.0193638
-0.0171273
-0.0121602
-0.00950717
-0.011041
-0.0133855
-0.0161836
-0.0187289
-0.0207951
-0.0223376
-0.0234109
-0.0241194
-0.0245574
-0.0247921
-0.0248572
-0.0247803
-0.0245105
-0.0240173
-0.0231857
-0.0222029
-0.0196734
-0.0187177
-0.0136688
-0.00885508
-0.00998234
-0.0122142
-0.0150439
-0.0177374
-0.0199737
-0.0216782
-0.022901
-0.0237462
-0.0243026
-0.0246346
-0.0247701
-0.0247113
-0.0243972
-0.0238283
-0.0228064
-0.0214181
-0.0186596
-0.0171949
-0.0106401
-0.00714743
-0.00779031
-0.00998271
-0.0129066
-0.0158834
-0.0184718
-0.0205102
-0.0220162
-0.0230871
-0.023809
-0.0242554
-0.0244388
-0.0243898
-0.0240423
-0.0233376
-0.0219342
-0.0197674
-0.0160239
-0.0119958
-0.000699209
-0.0060095
-0.00562885
-0.007864
-0.0109944
-0.0142773
-0.0172251
-0.0196338
-0.0214682
-0.0227853
-0.0236731
-0.0242156
-0.024457
-0.0243903
-0.0239176
-0.0228297
-0.0207599
-0.0173476
-0.0114928
-0.00292064
0.0164495
2.43027e-05
0.000330353
-0.00412602
-0.00856606
-0.0124622
-0.015749
-0.0184109
-0.020453
-0.0219251
-0.0229131
-0.0234972
-0.023721
-0.0235538
-0.0228944
-0.0215329
-0.0190426
-0.0139882
-0.00517327
0.00851928
0.0296444
)
;

boundaryField
{
    movingWall
    {
        type            zeroGradient;
    }
    movingWallBottom
    {
        type            zeroGradient;
    }
    fixedWalls
    {
        type            zeroGradient;
    }
    frontAndBack
    {
        type            empty;
    }
}


// ************************************************************************* //
