/*--------------------------------*- C++ -*----------------------------------*\
| =========                 |                                                 |
| \\      /  F ield         | OpenFOAM: The Open Source CFD Toolbox           |
|  \\    /   O peration     | Version:  4.1                                   |
|   \\  /    A nd           | Web:      www.OpenFOAM.org                      |
|    \\/     M anipulation  |                                                 |
\*---------------------------------------------------------------------------*/
FoamFile
{
    version     2.0;
    format      ascii;
    class       surfaceScalarField;
    location    "3.5";
    object      phi;
}
// * * * * * * * * * * * * * * * * * * * * * * * * * * * * * * * * * * * * * //

dimensions      [0 3 -1 0 0 0 0];

internalField   nonuniform List<scalar> 
760
(
3.28443e-06
-3.28444e-06
5.60244e-06
-2.31802e-06
7.43314e-06
-1.8307e-06
8.96438e-06
-1.53124e-06
1.02213e-05
-1.2569e-06
1.12294e-05
-1.00808e-06
1.20328e-05
-8.03411e-07
1.26752e-05
-6.42465e-07
1.32004e-05
-5.25162e-07
1.36282e-05
-4.27835e-07
1.39833e-05
-3.55022e-07
1.42572e-05
-2.73902e-07
1.44613e-05
-2.04111e-07
1.45537e-05
-9.24701e-08
1.45425e-05
1.12297e-08
1.41719e-05
3.70562e-07
1.34137e-05
7.58216e-07
1.14423e-05
1.97147e-06
7.85272e-06
3.58953e-06
7.85272e-06
1.13702e-06
-4.42145e-06
2.77955e-06
-3.96055e-06
4.3109e-06
-3.36205e-06
5.50837e-06
-2.72871e-06
6.39226e-06
-2.14079e-06
7.02232e-06
-1.63814e-06
7.4623e-06
-1.2434e-06
7.75916e-06
-9.39324e-07
7.9516e-06
-7.176e-07
8.06596e-06
-5.42195e-07
8.12663e-06
-4.15695e-07
8.13665e-06
-2.83926e-07
8.10191e-06
-1.69368e-07
7.97267e-06
3.6775e-08
7.76659e-06
2.17302e-07
7.41478e-06
7.22376e-07
6.752e-06
1.42099e-06
5.54337e-06
3.18011e-06
3.04116e-06
6.09174e-06
1.08939e-05
1.06498e-06
-5.48643e-06
2.36714e-06
-5.26271e-06
3.46552e-06
-4.46043e-06
4.26716e-06
-3.53035e-06
4.80328e-06
-2.6769e-06
5.134e-06
-1.96885e-06
5.3074e-06
-1.4168e-06
5.36615e-06
-9.98072e-07
5.3389e-06
-6.90346e-07
5.259e-06
-4.62301e-07
5.13281e-06
-2.89501e-07
4.98799e-06
-1.39105e-07
4.82095e-06
-2.32396e-09
4.62499e-06
2.32725e-07
4.31554e-06
5.26754e-07
3.92874e-06
1.10918e-06
3.27037e-06
2.07937e-06
2.46694e-06
3.98353e-06
1.13424e-06
7.42444e-06
1.20281e-05
8.07436e-07
-6.29387e-06
1.5706e-06
-6.02587e-06
2.21188e-06
-5.10171e-06
2.68555e-06
-4.00402e-06
2.99649e-06
-2.98785e-06
3.16975e-06
-2.14211e-06
3.2379e-06
-1.48496e-06
3.23475e-06
-9.94923e-07
3.18339e-06
-6.3898e-07
3.1011e-06
-3.80013e-07
2.99519e-06
-1.83586e-07
2.86153e-06
-5.45184e-09
2.69288e-06
1.6633e-07
2.51045e-06
4.15158e-07
2.26454e-06
7.72664e-07
1.97979e-06
1.39393e-06
1.5313e-06
2.52785e-06
1.02653e-06
4.4883e-06
4.17917e-07
8.03306e-06
1.2446e-05
4.11738e-07
-6.7056e-06
6.55599e-07
-6.26973e-06
8.75228e-07
-5.32134e-06
1.04007e-06
-4.16887e-06
1.14045e-06
-3.08824e-06
1.19078e-06
-2.19244e-06
1.20368e-06
-1.49786e-06
1.19068e-06
-9.81923e-07
1.15922e-06
-6.07522e-07
1.11386e-06
-3.34654e-07
1.05493e-06
-1.24653e-07
9.88507e-07
6.09729e-08
8.93909e-07
2.60928e-07
7.83173e-07
5.25894e-07
6.42095e-07
9.13741e-07
4.62956e-07
1.57306e-06
3.17385e-07
2.67343e-06
-9.38785e-08
4.89957e-06
-1.91494e-07
8.13068e-06
1.22545e-05
-2.12767e-07
-6.49284e-06
-4.12424e-07
-6.07007e-06
-5.72111e-07
-5.16165e-06
-6.81551e-07
-4.05942e-06
-7.66045e-07
-3.00374e-06
-8.28203e-07
-2.13028e-06
-8.6954e-07
-1.45652e-06
-8.93021e-07
-9.58441e-07
-9.03352e-07
-5.97192e-07
-9.04892e-07
-3.33114e-07
-9.04099e-07
-1.25446e-07
-9.0608e-07
6.29533e-08
-9.16036e-07
2.70884e-07
-9.32493e-07
5.42352e-07
-9.59985e-07
9.41234e-07
-9.89161e-07
1.60224e-06
-1.00322e-06
2.68748e-06
-9.60164e-07
4.85651e-06
-8.72184e-07
8.0427e-06
1.13824e-05
-7.72705e-07
-5.72013e-06
-1.52457e-06
-5.31821e-06
-2.09482e-06
-4.5914e-06
-2.51386e-06
-3.64038e-06
-2.79828e-06
-2.71932e-06
-2.98131e-06
-1.94725e-06
-3.08809e-06
-1.34974e-06
-3.13864e-06
-9.07882e-07
-3.14912e-06
-5.86713e-07
-3.13032e-06
-3.51916e-07
-3.0934e-06
-1.62371e-07
-3.05223e-06
2.17843e-08
-3.00099e-06
2.19648e-07
-2.94366e-06
4.85016e-07
-2.88325e-06
8.80831e-07
-2.80114e-06
1.52013e-06
-2.69643e-06
2.58277e-06
-2.37607e-06
4.53616e-06
-1.76669e-06
7.43332e-06
9.61567e-06
-1.42049e-06
-4.29964e-06
-2.71732e-06
-4.02138e-06
-3.76443e-06
-3.54429e-06
-4.54167e-06
-2.86314e-06
-5.07985e-06
-2.18115e-06
-5.43737e-06
-1.58972e-06
-5.66358e-06
-1.12354e-06
-5.80052e-06
-7.70942e-07
-5.87609e-06
-5.11137e-07
-5.91211e-06
-3.15901e-07
-5.92218e-06
-1.52298e-07
-5.91916e-06
1.87628e-08
-5.892e-06
1.92491e-07
-5.82956e-06
4.22574e-07
-5.70523e-06
7.56498e-07
-5.46911e-06
1.28401e-06
-5.0703e-06
2.18396e-06
-4.2348e-06
3.70066e-06
-2.53013e-06
5.72864e-06
7.08554e-06
-1.99202e-06
-2.30763e-06
-3.8438e-06
-2.16959e-06
-5.44655e-06
-1.94154e-06
-6.71961e-06
-1.59008e-06
-7.66487e-06
-1.23589e-06
-8.32796e-06
-9.26634e-07
-8.77837e-06
-6.73123e-07
-9.07875e-06
-4.70572e-07
-9.27634e-06
-3.13546e-07
-9.40206e-06
-1.90179e-07
-9.47097e-06
-8.33862e-08
-9.4764e-06
2.4197e-08
-9.4113e-06
1.27384e-07
-9.24449e-06
2.55769e-07
-8.93102e-06
4.43028e-07
-8.38256e-06
7.35543e-07
-7.44341e-06
1.24481e-06
-5.81836e-06
2.07561e-06
-3.34838e-06
3.25866e-06
3.73716e-06
-2.29897e-06
-8.65563e-09
-4.46107e-06
-7.49504e-09
-6.40094e-06
-1.6757e-09
-7.99618e-06
5.16183e-09
-9.24283e-06
1.07613e-08
-1.01847e-05
1.52806e-08
-1.08746e-05
1.67636e-08
-1.13623e-05
1.71458e-08
-1.1692e-05
1.60956e-08
-1.18965e-05
1.43199e-08
-1.19913e-05
1.14581e-08
-1.19747e-05
7.58116e-09
-1.18525e-05
5.19625e-09
-1.15975e-05
7.67559e-10
-1.11519e-05
-2.61555e-09
-1.04091e-05
-7.20029e-09
-9.15211e-06
-1.22121e-08
-7.05729e-06
-1.92182e-08
-3.77149e-06
-2.71412e-08
-3.43285e-08
-2.29421e-06
2.28555e-06
-4.45486e-06
2.15316e-06
-6.39453e-06
1.93799e-06
-7.99e-06
1.60064e-06
-9.23581e-06
1.25657e-06
-1.0175e-05
9.54483e-07
-1.08629e-05
7.04612e-07
-1.13489e-05
5.03226e-07
-1.16778e-05
3.44943e-07
-1.18819e-05
2.18458e-07
-1.19781e-05
1.07666e-07
-1.19586e-05
-1.19727e-08
-1.18349e-05
-1.18531e-07
-1.15801e-05
-2.53947e-07
-1.11347e-05
-4.48017e-07
-1.03931e-05
-7.48817e-07
-9.13786e-06
-1.26748e-06
-7.04601e-06
-2.11107e-06
-3.76476e-06
-3.30839e-06
-3.79909e-06
-1.99069e-06
4.27625e-06
-3.84348e-06
4.00594e-06
-5.44815e-06
3.54267e-06
-6.72283e-06
2.87531e-06
-7.66913e-06
2.20287e-06
-8.33052e-06
1.61587e-06
-8.77678e-06
1.15087e-06
-9.07072e-06
7.97172e-07
-9.2608e-06
5.3502e-07
-9.37832e-06
3.3598e-07
-9.43919e-06
1.68536e-07
-9.44195e-06
-9.21225e-09
-9.37389e-06
-1.86596e-07
-9.20601e-06
-4.21821e-07
-8.89293e-06
-7.611e-07
-8.34714e-06
-1.29461e-06
-7.41332e-06
-2.2013e-06
-5.79634e-06
-3.72804e-06
-3.33612e-06
-5.76862e-06
-7.1352e-06
-1.42196e-06
5.69821e-06
-2.72154e-06
5.30552e-06
-3.77177e-06
4.5929e-06
-4.55091e-06
3.65445e-06
-5.08858e-06
2.74054e-06
-5.44321e-06
1.97051e-06
-5.66463e-06
1.37228e-06
-5.79574e-06
9.28285e-07
-5.8649e-06
6.04177e-07
-5.89441e-06
3.65494e-07
-5.89796e-06
1.72086e-07
-5.89079e-06
-1.63898e-08
-5.85951e-06
-2.17869e-07
-5.79422e-06
-4.87112e-07
-5.66859e-06
-8.86726e-07
-5.4334e-06
-1.5298e-06
-5.03839e-06
-2.59631e-06
-4.21187e-06
-4.55456e-06
-2.51926e-06
-7.46123e-06
-9.65446e-06
-7.75176e-07
6.47338e-06
-1.53e-06
6.06035e-06
-2.1027e-06
5.16559e-06
-2.52248e-06
4.07424e-06
-2.80584e-06
3.0239e-06
-2.98654e-06
2.1512e-06
-3.09029e-06
1.47603e-06
-3.13748e-06
9.75481e-07
-3.14453e-06
6.11219e-07
-3.12261e-06
3.43582e-07
-3.0827e-06
1.32169e-07
-3.0393e-06
-5.97895e-08
-2.98578e-06
-2.71381e-07
-2.92632e-06
-5.46574e-07
-2.86392e-06
-9.49125e-07
-2.78001e-06
-1.61371e-06
-2.67423e-06
-2.70209e-06
-2.35549e-06
-4.8733e-06
-1.75566e-06
-8.06106e-06
-1.14101e-05
-2.151e-07
6.68848e-06
-4.16987e-07
6.26224e-06
-5.77975e-07
5.32658e-06
-6.87254e-07
4.18352e-06
-7.70348e-07
3.107e-06
-8.30602e-07
2.21146e-06
-8.69711e-07
1.51514e-06
-8.90847e-07
9.96617e-07
-8.98882e-07
6.19253e-07
-8.98429e-07
3.43129e-07
-8.95999e-07
1.29739e-07
-8.9668e-07
-5.91088e-08
-9.0562e-07
-2.62441e-07
-9.21424e-07
-5.30769e-07
-9.48602e-07
-9.21948e-07
-9.77754e-07
-1.58456e-06
-9.90956e-07
-2.68889e-06
-9.4946e-07
-4.91479e-06
-8.65023e-07
-8.1455e-06
-1.22751e-05
4.09263e-07
6.27922e-06
6.52053e-07
6.01945e-06
8.71817e-07
5.10681e-06
1.03821e-06
4.01712e-06
1.14063e-06
3.00458e-06
1.19314e-06
2.15895e-06
1.20826e-06
1.50002e-06
1.1974e-06
1.00748e-06
1.16788e-06
6.48776e-07
1.12411e-06
3.86896e-07
1.06629e-06
1.87564e-07
1.00054e-06
6.63826e-09
9.06238e-07
-1.6814e-07
7.95422e-07
-4.19954e-07
6.53976e-07
-7.80502e-07
4.74531e-07
-1.40511e-06
3.26466e-07
-2.54082e-06
-8.75323e-08
-4.5008e-06
-1.83967e-07
-8.04906e-06
-1.24591e-05
8.04461e-07
5.47476e-06
1.56754e-06
5.25637e-06
2.21013e-06
4.46422e-06
2.6867e-06
3.54055e-06
3.00118e-06
2.6901e-06
3.17787e-06
1.98225e-06
3.24899e-06
1.4289e-06
3.24828e-06
1.0082e-06
3.19878e-06
6.98276e-07
3.11783e-06
4.67844e-07
3.01261e-06
2.92786e-07
2.87921e-06
1.40038e-07
2.70994e-06
1.13032e-09
2.52657e-06
-2.3659e-07
2.27904e-06
-5.32965e-07
1.99204e-06
-1.11811e-06
1.54059e-06
-2.08938e-06
1.03505e-06
-3.99525e-06
4.21527e-07
-7.43554e-06
-1.20376e-05
1.06137e-06
4.41339e-06
2.36248e-06
3.95526e-06
3.46327e-06
3.36343e-06
4.2693e-06
2.73453e-06
4.81047e-06
2.14893e-06
5.1461e-06
1.64662e-06
5.32371e-06
1.25129e-06
5.38593e-06
9.45975e-07
5.36107e-06
7.23132e-07
5.28267e-06
5.46241e-07
5.15685e-06
4.1861e-07
5.01188e-06
2.85003e-07
4.844e-06
1.69018e-07
4.64604e-06
-3.86343e-08
4.33368e-06
-2.20604e-07
3.94388e-06
-7.28316e-07
3.28181e-06
-1.4273e-06
2.47494e-06
-3.18838e-06
1.1379e-06
-6.09851e-06
-1.08997e-05
1.13215e-06
3.28124e-06
2.77223e-06
2.31518e-06
4.3051e-06
1.83056e-06
5.50634e-06
1.53328e-06
6.39519e-06
1.26009e-06
7.03031e-06
1.0115e-06
7.47487e-06
8.06733e-07
7.77567e-06
6.45173e-07
7.97127e-06
5.27531e-07
8.08801e-06
4.29499e-07
8.1502e-06
3.56429e-07
8.16073e-06
2.7447e-07
8.12536e-06
2.04383e-07
7.99492e-06
9.18053e-08
7.78647e-06
-1.21509e-08
7.43142e-06
-3.73266e-07
6.76472e-06
-7.606e-07
5.5515e-06
-1.97516e-06
3.0451e-06
-3.59211e-06
-7.85459e-06
3.28124e-06
5.59642e-06
7.42698e-06
8.96027e-06
1.02204e-05
1.12318e-05
1.20386e-05
1.26838e-05
1.32113e-05
1.36408e-05
1.39972e-05
1.42717e-05
1.44761e-05
1.45679e-05
1.45557e-05
1.41825e-05
1.34219e-05
1.14467e-05
7.85459e-06
)
;

boundaryField
{
    movingWall
    {
        type            calculated;
        value           uniform 0;
    }
    movingWallBottom
    {
        type            calculated;
        value           uniform 0;
    }
    fixedWalls
    {
        type            calculated;
        value           uniform 0;
    }
    frontAndBack
    {
        type            empty;
        value           nonuniform 0();
    }
}


// ************************************************************************* //
