/*--------------------------------*- C++ -*----------------------------------*\
| =========                 |                                                 |
| \\      /  F ield         | OpenFOAM: The Open Source CFD Toolbox           |
|  \\    /   O peration     | Version:  4.1                                   |
|   \\  /    A nd           | Web:      www.OpenFOAM.org                      |
|    \\/     M anipulation  |                                                 |
\*---------------------------------------------------------------------------*/
FoamFile
{
    version     2.0;
    format      ascii;
    class       volVectorField;
    location    "3.5";
    object      U;
}
// * * * * * * * * * * * * * * * * * * * * * * * * * * * * * * * * * * * * * //

dimensions      [0 1 -1 0 0 0 0];

internalField   nonuniform List<vector> 
400
(
(0.0651465 -0.0991437 0)
(0.0794876 -0.0650946 0)
(0.128137 -0.0451914 0)
(0.16485 -0.0354339 0)
(0.192977 -0.0292704 0)
(0.215707 -0.0246522 0)
(0.23355 -0.0209839 0)
(0.24839 -0.0180531 0)
(0.259655 -0.0156374 0)
(0.269326 -0.0136457 0)
(0.276325 -0.0118274 0)
(0.282651 -0.0102328 0)
(0.286458 -0.00847845 0)
(0.289685 -0.00676512 0)
(0.289541 -0.00442765 0)
(0.286079 -0.000962409 0)
(0.275177 0.000980808 0)
(0.255808 0.0120953 0)
(0.192608 0.0226953 0)
(0.174839 0.117508 0)
(0.0175865 -0.0537792 0)
(0.0344202 -0.045247 0)
(0.0702781 -0.0402115 0)
(0.0975762 -0.0340405 0)
(0.11885 -0.0271901 0)
(0.134735 -0.0208016 0)
(0.145706 -0.0156004 0)
(0.153481 -0.0115522 0)
(0.157934 -0.00884977 0)
(0.161124 -0.00659286 0)
(0.162061 -0.00525121 0)
(0.162979 -0.00333276 0)
(0.161769 -0.00208906 0)
(0.160959 0.00128382 0)
(0.15562 0.00390949 0)
(0.152478 0.012339 0)
(0.137591 0.0223879 0)
(0.130778 0.0518745 0)
(0.0684214 0.0961347 0)
(0.0923075 0.167706 0)
(0.012868 -0.106624 0)
(0.0330161 -0.100707 0)
(0.0576825 -0.086698 0)
(0.0769587 -0.070932 0)
(0.0907404 -0.0555954 0)
(0.100124 -0.0419885 0)
(0.105399 -0.0311578 0)
(0.107662 -0.0229409 0)
(0.107639 -0.0168816 0)
(0.106455 -0.0123521 0)
(0.104003 -0.00888504 0)
(0.10153 -0.00584975 0)
(0.0975479 -0.00292308 0)
(0.0948933 0.00104498 0)
(0.0879052 0.00635 0)
(0.0841467 0.017769 0)
(0.0682112 0.0355411 0)
(0.069007 0.0743763 0)
(0.0134478 0.139514 0)
(0.0514606 0.227627 0)
(0.00844759 -0.121562 0)
(0.0237543 -0.116476 0)
(0.0363468 -0.0981481 0)
(0.0484267 -0.0762915 0)
(0.0570628 -0.0565481 0)
(0.0623302 -0.0407452 0)
(0.064799 -0.0286398 0)
(0.0652974 -0.0194989 0)
(0.0645495 -0.0127779 0)
(0.0630999 -0.00781918 0)
(0.0610803 -0.00405362 0)
(0.0587321 -0.000774445 0)
(0.055451 0.00256727 0)
(0.0522576 0.00711641 0)
(0.0471472 0.0136087 0)
(0.0439344 0.0255464 0)
(0.0308965 0.0468963 0)
(0.0379724 0.0871598 0)
(-0.00749446 0.159162 0)
(0.0337595 0.256724 0)
(0.00350304 -0.133379 0)
(0.0108971 -0.126858 0)
(0.0137687 -0.10771 0)
(0.0186814 -0.0845883 0)
(0.0217989 -0.0628609 0)
(0.0235944 -0.044662 0)
(0.0243472 -0.0305357 0)
(0.0242866 -0.0200918 0)
(0.0237466 -0.0125344 0)
(0.0229009 -0.00706626 0)
(0.0217925 -0.00293066 0)
(0.020524 0.000675188 0)
(0.0187977 0.00448399 0)
(0.0168176 0.00963884 0)
(0.0139815 0.01714 0)
(0.0125324 0.029998 0)
(0.00290443 0.0526134 0)
(0.0139322 0.0948806 0)
(-0.020864 0.167175 0)
(0.0189554 0.25772 0)
(-0.00515367 -0.134642 0)
(-0.00565567 -0.12498 0)
(-0.0117097 -0.105867 0)
(-0.0133989 -0.0830818 0)
(-0.0148006 -0.0614874 0)
(-0.015937 -0.0436194 0)
(-0.0168271 -0.0297795 0)
(-0.0174825 -0.0195211 0)
(-0.0178186 -0.0120718 0)
(-0.0179955 -0.00662005 0)
(-0.0180405 -0.0023574 0)
(-0.0180806 0.00146487 0)
(-0.0182762 0.00553527 0)
(-0.0185622 0.0110314 0)
(-0.0191631 0.0191537 0)
(-0.0192823 0.0323923 0)
(-0.0239759 0.0541398 0)
(-0.0112003 0.0970269 0)
(-0.0340032 0.164035 0)
(0.00988772 0.244354 0)
(-0.0119618 -0.121635 0)
(-0.0234633 -0.114855 0)
(-0.0390429 -0.0985766 0)
(-0.0481267 -0.0777605 0)
(-0.0540056 -0.057835 0)
(-0.0581265 -0.0412774 0)
(-0.0606713 -0.0284375 0)
(-0.0622181 -0.0188993 0)
(-0.0628071 -0.0120061 0)
(-0.0627328 -0.00695603 0)
(-0.0622249 -0.00290384 0)
(-0.061481 0.000824027 0)
(-0.0606619 0.00495179 0)
(-0.0597281 0.0101981 0)
(-0.0591264 0.0175826 0)
(-0.058493 0.029975 0)
(-0.0579042 0.0514375 0)
(-0.0460134 0.0946188 0)
(-0.051819 0.159102 0)
(-0.00521515 0.216992 0)
(-0.0208416 -0.0992556 0)
(-0.0422029 -0.0928944 0)
(-0.0683836 -0.0812257 0)
(-0.0862842 -0.0651093 0)
(-0.0977354 -0.0492725 0)
(-0.105973 -0.0356549 0)
(-0.111072 -0.0249488 0)
(-0.114632 -0.0169758 0)
(-0.116648 -0.011088 0)
(-0.117757 -0.00675485 0)
(-0.118265 -0.00322595 0)
(-0.118431 0.000256852 0)
(-0.118517 0.0043577 0)
(-0.118324 0.00975786 0)
(-0.117749 0.0178355 0)
(-0.115202 0.0306825 0)
(-0.108194 0.0524818 0)
(-0.0907206 0.0904458 0)
(-0.0695803 0.141488 0)
(-0.0181129 0.176893 0)
(-0.0274655 -0.0641646 0)
(-0.0592143 -0.0609254 0)
(-0.0967335 -0.0536801 0)
(-0.126081 -0.0431845 0)
(-0.146131 -0.0328675 0)
(-0.161658 -0.0241903 0)
(-0.17139 -0.0174195 0)
(-0.178748 -0.0120853 0)
(-0.183279 -0.00804897 0)
(-0.186745 -0.00486801 0)
(-0.188571 -0.00213025 0)
(-0.189828 0.00079264 0)
(-0.190135 0.00419975 0)
(-0.189131 0.00853447 0)
(-0.185815 0.0147844 0)
(-0.177909 0.0247235 0)
(-0.161151 0.0415435 0)
(-0.131306 0.0683448 0)
(-0.0825356 0.102898 0)
(-0.0453775 0.118554 0)
(-0.0310832 -0.022791 0)
(-0.0681329 -0.0215256 0)
(-0.112343 -0.0194269 0)
(-0.149235 -0.0161137 0)
(-0.175097 -0.0128419 0)
(-0.196 -0.00962498 0)
(-0.211293 -0.00670584 0)
(-0.222789 -0.00450012 0)
(-0.230577 -0.00280939 0)
(-0.235989 -0.00151779 0)
(-0.238968 -0.000403489 0)
(-0.240295 0.000645058 0)
(-0.24016 0.00207721 0)
(-0.238075 0.00367984 0)
(-0.232492 0.00620527 0)
(-0.22018 0.0100876 0)
(-0.196715 0.016798 0)
(-0.157964 0.0270599 0)
(-0.101896 0.0400156 0)
(-0.0500325 0.0445972 0)
(-0.0309809 0.0224097 0)
(-0.0680189 0.0212161 0)
(-0.112201 0.0193652 0)
(-0.149124 0.0163293 0)
(-0.174993 0.0132595 0)
(-0.195826 0.0102147 0)
(-0.211078 0.00735733 0)
(-0.222537 0.00517062 0)
(-0.230303 0.00343918 0)
(-0.235697 0.00207721 0)
(-0.238675 0.00085715 0)
(-0.240023 -0.000333894 0)
(-0.239796 -0.00188051 0)
(-0.237737 -0.00366012 0)
(-0.232129 -0.00633938 0)
(-0.219852 -0.010435 0)
(-0.196411 -0.0173765 0)
(-0.157724 -0.0279525 0)
(-0.101719 -0.0412387 0)
(-0.0498107 -0.0461258 0)
(-0.0274121 0.063726 0)
(-0.0591807 0.0606172 0)
(-0.0967354 0.0536323 0)
(-0.126163 0.043411 0)
(-0.146215 0.0332881 0)
(-0.161756 0.0247095 0)
(-0.171416 0.0179939 0)
(-0.178667 0.0126616 0)
(-0.183053 0.00859676 0)
(-0.186351 0.0053477 0)
(-0.188023 0.00252938 0)
(-0.189115 -0.00048835 0)
(-0.189428 -0.00402211 0)
(-0.188328 -0.00848993 0)
(-0.185042 -0.0148726 0)
(-0.177139 -0.0249521 0)
(-0.160496 -0.0419404 0)
(-0.130771 -0.0689692 0)
(-0.0822981 -0.103786 0)
(-0.0450015 -0.119606 0)
(-0.0208312 0.0988038 0)
(-0.0422452 0.0926041 0)
(-0.0684981 0.0812054 0)
(-0.0864869 0.0653478 0)
(-0.097941 0.0496798 0)
(-0.106141 0.0361357 0)
(-0.111149 0.0254324 0)
(-0.1146 0.0174281 0)
(-0.11649 0.0114882 0)
(-0.117469 0.00707594 0)
(-0.117842 0.00346715 0)
(-0.117896 -8.97894e-05 0)
(-0.117904 -0.00426704 0)
(-0.117617 -0.00973632 0)
(-0.117 -0.0178877 0)
(-0.114442 -0.0308213 0)
(-0.1075 -0.0527072 0)
(-0.0901364 -0.0908352 0)
(-0.0693634 -0.142121 0)
(-0.017889 -0.177771 0)
(-0.0119707 0.121209 0)
(-0.0235382 0.114615 0)
(-0.0391814 0.0986185 0)
(-0.0483258 0.0780381 0)
(-0.0541872 0.0582379 0)
(-0.0582672 0.0417064 0)
(-0.0607481 0.0288468 0)
(-0.0622292 0.019264 0)
(-0.0627468 0.0123122 0)
(-0.0626098 0.0071894 0)
(-0.0620364 0.00305894 0)
(-0.0612439 -0.000746151 0)
(-0.0603788 -0.00494933 0)
(-0.0593975 -0.0102786 0)
(-0.0587444 -0.0177397 0)
(-0.058065 -0.0301927 0)
(-0.0574683 -0.051692 0)
(-0.0455393 -0.0948887 0)
(-0.0515601 -0.159453 0)
(-0.00507222 -0.2176 0)
(-0.00517507 0.134259 0)
(-0.00572902 0.1248 0)
(-0.0118208 0.105942 0)
(-0.0135388 0.0833607 0)
(-0.0149147 0.0618613 0)
(-0.0160119 0.0440076 0)
(-0.0168534 0.0301402 0)
(-0.0174624 0.0198334 0)
(-0.0177492 0.0123251 0)
(-0.0178849 0.00680651 0)
(-0.0178916 0.00247406 0)
(-0.0179041 -0.00141926 0)
(-0.0180764 -0.00555826 0)
(-0.0183452 -0.0111232 0)
(-0.0189317 -0.0193184 0)
(-0.0190371 -0.0326429 0)
(-0.0237488 -0.0544873 0)
(-0.0109324 -0.0973973 0)
(-0.0338402 -0.164414 0)
(0.00997099 -0.244839 0)
(0.00348388 0.133045 0)
(0.0108367 0.126715 0)
(0.0136948 0.107824 0)
(0.0186136 0.0848834 0)
(0.0217688 0.063237 0)
(0.0236121 0.045038 0)
(0.0244163 0.0308697 0)
(0.0244018 0.0203695 0)
(0.0239034 0.0127514 0)
(0.0230928 0.00721984 0)
(0.0220112 0.00302047 0)
(0.0207609 -0.000649248 0)
(0.0190425 -0.00451878 0)
(0.017066 -0.00973833 0)
(0.0142226 -0.0173042 0)
(0.0127666 -0.0302259 0)
(0.00310729 -0.0528896 0)
(0.0141574 -0.0951421 0)
(-0.0207362 -0.167458 0)
(0.0190224 -0.258055 0)
(0.00842636 0.121294 0)
(0.0237081 0.116353 0)
(0.0362886 0.0982536 0)
(0.0484007 0.0765411 0)
(0.0571028 0.0568499 0)
(0.0624488 0.0410411 0)
(0.0649927 0.0289033 0)
(0.0655494 0.0197196 0)
(0.0648433 0.0129504 0)
(0.0634258 0.0079383 0)
(0.0614237 0.00411943 0)
(0.0590873 0.000784457 0)
(0.0557985 -0.0026094 0)
(0.0525956 -0.00720889 0)
(0.0474481 -0.0137539 0)
(0.0442161 -0.0257496 0)
(0.0311103 -0.0471363 0)
(0.0381493 -0.0874331 0)
(-0.00736742 -0.159458 0)
(0.0338156 -0.256934 0)
(0.0128182 0.106414 0)
(0.0329345 0.10059 0)
(0.0575979 0.0867585 0)
(0.0769426 0.0711108 0)
(0.0908128 0.0558465 0)
(0.100302 0.0422517 0)
(0.105679 0.0313977 0)
(0.108031 0.0231424 0)
(0.108065 0.0170426 0)
(0.106923 0.0124707 0)
(0.104482 0.00896453 0)
(0.102017 0.00588559 0)
(0.0980104 0.00291955 0)
(0.0953442 -0.00109608 0)
(0.0882866 -0.0064427 0)
(0.0844979 -0.0179113 0)
(0.0684698 -0.035695 0)
(0.0692087 -0.0745584 0)
(0.0135624 -0.139658 0)
(0.0515186 -0.227765 0)
(0.017501 0.0536645 0)
(0.0343054 0.045147 0)
(0.0701356 0.0402116 0)
(0.0974849 0.0341135 0)
(0.118839 0.0272967 0)
(0.134828 0.0209137 0)
(0.145896 0.0157048 0)
(0.153773 0.0116334 0)
(0.158296 0.00891614 0)
(0.161551 0.00663499 0)
(0.162519 0.00528344 0)
(0.163463 0.00333701 0)
(0.162244 0.00208081 0)
(0.161421 -0.00132619 0)
(0.156032 -0.00395657 0)
(0.152854 -0.0124273 0)
(0.137878 -0.0224667 0)
(0.130994 -0.0519741 0)
(0.0685431 -0.0962252 0)
(0.0923611 -0.167777 0)
(0.0650879 0.0991241 0)
(0.0794093 0.065067 0)
(0.128013 0.0451722 0)
(0.164738 0.0354326 0)
(0.192903 0.0292828 0)
(0.215706 0.024669 0)
(0.233612 0.0210053 0)
(0.248529 0.0180741 0)
(0.259844 0.0156622 0)
(0.269568 0.0136686 0)
(0.27659 0.0118533 0)
(0.282941 0.0102528 0)
(0.286747 0.00849947 0)
(0.289977 0.00677543 0)
(0.289806 0.00443936 0)
(0.286316 0.00095801 0)
(0.275365 -0.000977829 0)
(0.255948 -0.0121168 0)
(0.192668 -0.0226975 0)
(0.174861 -0.117501 0)
)
;

boundaryField
{
    movingWall
    {
        type            fixedValue;
        value           uniform (1 0 0);
    }
    movingWallBottom
    {
        type            fixedValue;
        value           uniform (1 0 0);
    }
    fixedWalls
    {
        type            noSlip;
    }
    frontAndBack
    {
        type            empty;
    }
}


// ************************************************************************* //
