/*--------------------------------*- C++ -*----------------------------------*\
| =========                 |                                                 |
| \\      /  F ield         | OpenFOAM: The Open Source CFD Toolbox           |
|  \\    /   O peration     | Version:  4.1                                   |
|   \\  /    A nd           | Web:      www.OpenFOAM.org                      |
|    \\/     M anipulation  |                                                 |
\*---------------------------------------------------------------------------*/
FoamFile
{
    version     2.0;
    format      ascii;
    class       volScalarField;
    location    "5.5";
    object      epsilon;
}
// * * * * * * * * * * * * * * * * * * * * * * * * * * * * * * * * * * * * * //

dimensions      [0 2 -3 0 0 0 0];

internalField   nonuniform List<scalar> 
400
(
0.0400219
0.0695345
0.0905389
0.101314
0.1086
0.114049
0.118571
0.122331
0.12558
0.128349
0.130826
0.133164
0.135472
0.13796
0.141105
0.144078
0.147668
0.152647
0.169254
0.147736
0.0100812
0.00823107
0.008804
0.00963515
0.0105374
0.0115529
0.0127738
0.0142553
0.0158881
0.0177241
0.0195627
0.0216159
0.0233927
0.0255967
0.0270575
0.0310406
0.036233
0.0486794
0.0747139
0.109881
0.0115236
0.00601004
0.00438151
0.003912
0.00392332
0.00412568
0.00461573
0.00535784
0.00623844
0.00722706
0.00820786
0.00919337
0.0100052
0.0107578
0.0112018
0.0121638
0.0138446
0.0199109
0.0370424
0.080904
0.0125416
0.00532237
0.00371799
0.0033527
0.00343567
0.00375644
0.00433146
0.00502615
0.00575245
0.00643299
0.00697772
0.00733193
0.007459
0.0074432
0.00729903
0.0073974
0.00809188
0.0121234
0.0249628
0.0660293
0.0133516
0.00514598
0.00373934
0.00363781
0.00397416
0.00458038
0.00526287
0.00593586
0.00650143
0.00689347
0.00704405
0.0069448
0.00660989
0.00610295
0.00555307
0.00531757
0.00580478
0.00929862
0.0201098
0.0571766
0.0137547
0.00524208
0.00426764
0.0042496
0.00484663
0.00560037
0.00633414
0.00693771
0.0072962
0.00740396
0.00720629
0.00673203
0.0060366
0.00523641
0.00454325
0.00427408
0.00495541
0.00835806
0.0190672
0.0503435
0.0142096
0.00604902
0.00493434
0.00484178
0.00551382
0.00634573
0.00705196
0.00752123
0.00771111
0.00765295
0.00720731
0.00650757
0.00566204
0.00482647
0.00435295
0.00426548
0.0052148
0.00883371
0.019647
0.0441284
0.0145132
0.00675262
0.00526579
0.00510353
0.00575113
0.00658063
0.00720431
0.00751381
0.00760063
0.0073866
0.00685415
0.00618871
0.00551364
0.00508029
0.00493136
0.00519437
0.00669262
0.0107773
0.0213169
0.0374445
0.0146252
0.00750172
0.00526026
0.00464484
0.00463279
0.0051085
0.00540381
0.00559455
0.00565905
0.00566243
0.00562952
0.0056273
0.00579005
0.00612811
0.00679535
0.00805484
0.0104312
0.0147668
0.021489
0.0293309
0.0146623
0.00787727
0.005031
0.00388055
0.00355777
0.0035056
0.00360142
0.00380815
0.004081
0.00445863
0.00493566
0.00556093
0.00636431
0.00741946
0.00883053
0.0107465
0.013308
0.0163807
0.0178851
0.0164559
0.0146472
0.00786922
0.00503182
0.00388684
0.00356755
0.00351775
0.00361989
0.00382699
0.00409947
0.00447178
0.00494324
0.00555929
0.00635349
0.00739715
0.00879917
0.010711
0.0132864
0.0164538
0.0180267
0.0168165
0.0145935
0.00747675
0.00523298
0.00461298
0.00459849
0.00507751
0.00538681
0.00559358
0.00566764
0.00567338
0.00562856
0.00561741
0.00574142
0.00605522
0.00667878
0.00790701
0.0102454
0.0146018
0.0215116
0.029689
0.0144673
0.00672071
0.0052247
0.00505078
0.00568197
0.0065068
0.00713355
0.00744729
0.00753769
0.00733889
0.00681499
0.00615502
0.00547637
0.00503037
0.00487362
0.0051197
0.00659504
0.0106518
0.0211908
0.0376016
0.0141503
0.0060169
0.00489291
0.00479378
0.00545182
0.00627709
0.00697762
0.00744148
0.00762997
0.00757679
0.00713995
0.0064509
0.00561659
0.0047903
0.00431864
0.00423096
0.00517766
0.00877274
0.0195557
0.0442339
0.0137025
0.0052124
0.00423381
0.00421254
0.00480113
0.00554675
0.00627057
0.00686614
0.00722258
0.00733232
0.00714214
0.00667936
0.00599809
0.00521189
0.00452886
0.00426373
0.00494033
0.00832618
0.0189929
0.0503896
0.0133035
0.00512588
0.0037151
0.00361237
0.00394395
0.00454332
0.00521615
0.00587965
0.00643912
0.00682966
0.00698397
0.00689227
0.00657014
0.00607564
0.00553798
0.00531259
0.00580244
0.00928458
0.0200502
0.0571861
0.0124999
0.00530369
0.00370355
0.00333853
0.0034188
0.00373261
0.0042974
0.004981
0.0056977
0.00637223
0.00691529
0.00727311
0.007409
0.00740103
0.00727055
0.00737753
0.00807949
0.0121107
0.0249557
0.0660063
0.0114827
0.00599157
0.00436942
0.00390148
0.00391086
0.00410732
0.00458611
0.00531533
0.00618211
0.00715925
0.00813108
0.00911329
0.00992526
0.0106849
0.0111382
0.0121167
0.0138068
0.0198778
0.037012
0.0808719
0.0100523
0.00821557
0.00879357
0.00962212
0.0105164
0.0115204
0.0127247
0.0141887
0.0158011
0.0176203
0.0194398
0.0214823
0.0232493
0.0254468
0.0269196
0.030932
0.036136
0.0485983
0.074658
0.109801
0.0400222
0.0695811
0.0905879
0.101335
0.108576
0.113982
0.118459
0.122186
0.1254
0.128151
0.130605
0.132938
0.135234
0.137731
0.140876
0.143854
0.147455
0.152444
0.169081
0.147618
)
;

boundaryField
{
    movingWall
    {
        Cmu             0.09;
        kappa           0.41;
        E               9.8;
        type            epsilonWallFunction;
        value           nonuniform List<scalar> 
20
(
0.0400222
0.0695811
0.0905879
0.101335
0.108576
0.113982
0.118459
0.122186
0.1254
0.128151
0.130605
0.132938
0.135234
0.137731
0.140876
0.143854
0.147455
0.152444
0.169081
0.147618
)
;
    }
    movingWallBottom
    {
        Cmu             0.09;
        kappa           0.41;
        E               9.8;
        type            epsilonWallFunction;
        value           nonuniform List<scalar> 
20
(
0.0400219
0.0695345
0.0905389
0.101314
0.1086
0.114049
0.118571
0.122331
0.12558
0.128349
0.130826
0.133164
0.135472
0.13796
0.141105
0.144078
0.147668
0.152647
0.169254
0.147736
)
;
    }
    fixedWalls
    {
        Cmu             0.09;
        kappa           0.41;
        E               9.8;
        type            epsilonWallFunction;
        value           nonuniform List<scalar> 
40
(
0.0400219
0.0100812
0.0115236
0.0125416
0.0133516
0.0137547
0.0142096
0.0145132
0.0146252
0.0146623
0.0146472
0.0145935
0.0144673
0.0141503
0.0137025
0.0133035
0.0124999
0.0114827
0.0100523
0.0400222
0.147736
0.109881
0.080904
0.0660293
0.0571766
0.0503435
0.0441284
0.0374445
0.0293309
0.0164559
0.0168165
0.029689
0.0376016
0.0442339
0.0503896
0.0571861
0.0660063
0.0808719
0.109801
0.147618
)
;
    }
    frontAndBack
    {
        type            empty;
    }
}


// ************************************************************************* //
