/*--------------------------------*- C++ -*----------------------------------*\
| =========                 |                                                 |
| \\      /  F ield         | OpenFOAM: The Open Source CFD Toolbox           |
|  \\    /   O peration     | Version:  4.1                                   |
|   \\  /    A nd           | Web:      www.OpenFOAM.org                      |
|    \\/     M anipulation  |                                                 |
\*---------------------------------------------------------------------------*/
FoamFile
{
    version     2.0;
    format      ascii;
    class       volScalarField;
    location    "5.5";
    object      k;
}
// * * * * * * * * * * * * * * * * * * * * * * * * * * * * * * * * * * * * * //

dimensions      [0 2 -2 0 0 0 0];

internalField   nonuniform List<scalar> 
400
(
0.00396491
0.00573036
0.00683296
0.00736505
0.00771415
0.0079701
0.00817944
0.00835146
0.00849869
0.00862313
0.00873372
0.00883741
0.00893923
0.00904831
0.00918526
0.00931382
0.00946784
0.0096794
0.0103692
0.00947044
0.00158128
0.0017053
0.00197978
0.00214706
0.00225778
0.00237651
0.00252461
0.00270995
0.00292287
0.00316297
0.00340792
0.00366021
0.0038746
0.00409224
0.00419437
0.00440002
0.00457115
0.00509235
0.00643452
0.00777421
0.00172869
0.00169296
0.00181089
0.00190673
0.00198111
0.00210657
0.00229042
0.00252513
0.00278971
0.00306214
0.00330796
0.00350593
0.00363331
0.00364889
0.00359316
0.00347644
0.00324279
0.00341678
0.0043196
0.00633892
0.00182911
0.00172401
0.00180383
0.0019216
0.00211798
0.00238824
0.00269863
0.00301853
0.00331288
0.00355127
0.00370557
0.00375439
0.00371227
0.00357938
0.00332415
0.00304129
0.00272002
0.00283301
0.0035285
0.0055359
0.00190709
0.00194956
0.00203141
0.0021671
0.00243052
0.00276461
0.00312058
0.00345175
0.00370784
0.00386619
0.00390974
0.00384274
0.00365442
0.00336433
0.00299382
0.00264058
0.00236738
0.00253406
0.00320878
0.00502926
0.00194532
0.00214981
0.00219026
0.00233687
0.00266593
0.00304423
0.00339722
0.00368295
0.00387941
0.00395452
0.00389675
0.00370299
0.00339428
0.00300173
0.00257738
0.00222905
0.00207588
0.00227785
0.00300105
0.00462007
0.00198803
0.00239195
0.00234117
0.00241522
0.00276576
0.00315114
0.00347925
0.00369491
0.00377999
0.00376294
0.0035972
0.00331528
0.002944
0.00252244
0.00210049
0.00187887
0.00181977
0.00212726
0.00292546
0.0042315
0.00201629
0.00262756
0.00240188
0.00239311
0.00264936
0.00294844
0.00315886
0.00325482
0.00327166
0.00314965
0.00291815
0.00261841
0.00229112
0.00198743
0.00183073
0.00177394
0.00182759
0.0021965
0.0029465
0.0037926
0.00202668
0.00281491
0.00217846
0.00198191
0.00197731
0.00209452
0.00214537
0.0021602
0.00210922
0.00200839
0.00190523
0.00180722
0.00175534
0.00173536
0.00175416
0.00186103
0.00206785
0.00248202
0.00291803
0.00322272
0.00203012
0.0029599
0.00204714
0.00162432
0.0014678
0.00140799
0.00138243
0.00137494
0.00138156
0.00141568
0.00146527
0.0015405
0.00163838
0.00176357
0.00192394
0.00213113
0.00237074
0.00255642
0.00262469
0.0021922
0.00202872
0.00295686
0.00204779
0.00162748
0.00147305
0.00141506
0.00139061
0.00138362
0.00139057
0.00142218
0.00147054
0.00154278
0.00163913
0.00176154
0.00192015
0.00212713
0.00236963
0.00256417
0.00263847
0.00222416
0.00202375
0.00280741
0.00216976
0.00197177
0.00196708
0.00209192
0.00214843
0.00216727
0.00212893
0.00202755
0.00192537
0.00182089
0.00176278
0.00173915
0.00174568
0.00185086
0.00204737
0.002468
0.0029179
0.00324894
0.00201204
0.00261656
0.00238555
0.00237436
0.00262807
0.00292987
0.00314688
0.00324858
0.0032697
0.00315823
0.0029329
0.00263568
0.00230793
0.00199863
0.00183434
0.00177454
0.00182393
0.00218924
0.00294087
0.00380322
0.00198249
0.0023805
0.00232564
0.00239632
0.00274445
0.00312973
0.00345906
0.0036777
0.00376527
0.00375385
0.00359326
0.00331601
0.00294904
0.00253061
0.00211023
0.00188386
0.00182228
0.0021252
0.00292027
0.00423827
0.00194038
0.00213928
0.0021764
0.00231978
0.00264683
0.00302427
0.00337686
0.00366275
0.00386053
0.00393877
0.00388532
0.00369636
0.00339265
0.00300434
0.00258332
0.00223642
0.00208291
0.00228284
0.00299956
0.00462291
0.0019025
0.00194102
0.00202001
0.0021539
0.00241585
0.00274806
0.00310202
0.00343179
0.00368828
0.0038483
0.00389467
0.00383127
0.00364752
0.00336197
0.00299486
0.00264411
0.00237033
0.00253334
0.00320407
0.00502982
0.00182503
0.00171711
0.00179613
0.00191201
0.00210679
0.00237495
0.00268291
0.00300067
0.00329385
0.00353234
0.0036881
0.00373972
0.00369979
0.00357094
0.00331873
0.00303894
0.00271881
0.00283146
0.00352622
0.0055346
0.00172459
0.00168798
0.0018049
0.00190181
0.00197569
0.00209922
0.00228014
0.00251152
0.00277303
0.00304335
0.00328814
0.00348662
0.00361491
0.00363371
0.00357963
0.00346545
0.00323528
0.0034097
0.00431488
0.00633721
0.00157824
0.00170161
0.0019758
0.00214297
0.00225314
0.00237049
0.00251643
0.00269921
0.00290917
0.0031466
0.00338878
0.00363957
0.00385236
0.00407005
0.00417321
0.00438142
0.00455525
0.00508073
0.00642963
0.00777041
0.00396492
0.00573292
0.00683543
0.00736608
0.00771303
0.00796698
0.00817428
0.00834485
0.00849057
0.00861428
0.00872385
0.00882741
0.00892876
0.00903827
0.00917534
0.00930415
0.00945876
0.00967086
0.0103621
0.0094654
)
;

boundaryField
{
    movingWall
    {
        type            kqRWallFunction;
        value           nonuniform List<scalar> 
20
(
0.00396492
0.00573292
0.00683543
0.00736608
0.00771303
0.00796698
0.00817428
0.00834485
0.00849057
0.00861428
0.00872385
0.00882741
0.00892876
0.00903827
0.00917534
0.00930415
0.00945876
0.00967086
0.0103621
0.0094654
)
;
    }
    movingWallBottom
    {
        type            kqRWallFunction;
        value           nonuniform List<scalar> 
20
(
0.00396491
0.00573036
0.00683296
0.00736505
0.00771415
0.0079701
0.00817944
0.00835146
0.00849869
0.00862313
0.00873372
0.00883741
0.00893923
0.00904831
0.00918526
0.00931382
0.00946784
0.0096794
0.0103692
0.00947044
)
;
    }
    fixedWalls
    {
        type            kqRWallFunction;
        value           nonuniform List<scalar> 
40
(
0.00396491
0.00158128
0.00172869
0.00182911
0.00190709
0.00194532
0.00198803
0.00201629
0.00202668
0.00203012
0.00202872
0.00202375
0.00201204
0.00198249
0.00194038
0.0019025
0.00182503
0.00172459
0.00157824
0.00396492
0.00947044
0.00777421
0.00633892
0.0055359
0.00502926
0.00462007
0.0042315
0.0037926
0.00322272
0.0021922
0.00222416
0.00324894
0.00380322
0.00423827
0.00462291
0.00502982
0.0055346
0.00633721
0.00777041
0.0094654
)
;
    }
    frontAndBack
    {
        type            empty;
    }
}


// ************************************************************************* //
