/*--------------------------------*- C++ -*----------------------------------*\
| =========                 |                                                 |
| \\      /  F ield         | OpenFOAM: The Open Source CFD Toolbox           |
|  \\    /   O peration     | Version:  4.1                                   |
|   \\  /    A nd           | Web:      www.OpenFOAM.org                      |
|    \\/     M anipulation  |                                                 |
\*---------------------------------------------------------------------------*/
FoamFile
{
    version     2.0;
    format      ascii;
    class       volScalarField;
    location    "5.5";
    object      nut;
}
// * * * * * * * * * * * * * * * * * * * * * * * * * * * * * * * * * * * * * //

dimensions      [0 2 -1 0 0 0 0];

internalField   nonuniform List<scalar> 
400
(
3.53517e-05
4.25016e-05
4.64114e-05
4.81864e-05
4.93161e-05
5.01279e-05
5.07822e-05
5.13134e-05
5.17637e-05
5.21411e-05
5.24742e-05
5.27845e-05
5.30875e-05
5.34101e-05
5.38125e-05
5.41875e-05
5.46334e-05
5.52398e-05
5.71729e-05
5.46381e-05
2.23226e-05
3.17972e-05
4.00679e-05
4.30599e-05
4.35385e-05
4.39977e-05
4.49065e-05
4.63648e-05
4.83938e-05
5.08005e-05
5.34307e-05
5.57802e-05
5.77582e-05
5.88816e-05
5.85179e-05
5.61334e-05
5.19026e-05
4.79439e-05
4.98739e-05
4.95033e-05
2.33393e-05
4.29197e-05
6.73602e-05
8.36414e-05
9.00335e-05
9.68057e-05
0.00010229
0.000107107
0.000112276
0.00011677
0.000119987
0.00012033
0.000118747
0.000111389
0.000103731
8.94216e-05
6.83594e-05
5.27698e-05
4.53347e-05
4.46995e-05
2.40087e-05
5.02595e-05
7.87634e-05
9.91228e-05
0.000117509
0.000136654
0.000151319
0.000163154
0.000171712
0.00017644
0.000177108
0.000173023
0.00016628
0.000154917
0.000136251
0.000112533
8.22882e-05
5.95818e-05
4.4888e-05
4.17717e-05
2.45162e-05
6.64734e-05
9.93212e-05
0.000116188
0.000133781
0.000150179
0.00016653
0.00018065
0.000190316
0.000195151
0.000195306
0.000191366
0.000181838
0.000166917
0.000145265
0.000118013
8.68944e-05
6.21525e-05
4.60802e-05
3.98136e-05
2.47613e-05
7.93483e-05
0.000101169
0.000115655
0.000131978
0.000148929
0.000163984
0.000175962
0.000185642
0.000190093
0.000189643
0.000183317
0.00017177
0.000154865
0.000131593
0.000104626
7.82646e-05
5.58709e-05
4.2511e-05
3.8159e-05
2.50327e-05
8.51262e-05
9.99723e-05
0.000108431
0.000124859
0.00014083
0.000154491
0.000163366
0.000166766
0.00016652
0.000161584
0.000152007
0.000137767
0.000118646
9.12221e-05
7.44846e-05
5.71528e-05
4.61044e-05
3.92044e-05
3.65185e-05
2.52108e-05
9.20187e-05
9.86012e-05
0.000100995
0.000109843
0.000118894
0.000124655
0.000126893
0.000126744
0.000120871
0.000111816
9.97053e-05
8.56839e-05
6.99743e-05
6.11681e-05
5.45242e-05
4.49163e-05
4.02898e-05
3.6655e-05
3.45723e-05
2.52761e-05
9.50629e-05
8.1196e-05
7.61093e-05
7.59538e-05
7.72893e-05
7.66565e-05
7.507e-05
7.07526e-05
6.41113e-05
5.8032e-05
5.22355e-05
4.7894e-05
4.42278e-05
4.07539e-05
3.86985e-05
3.68934e-05
3.75462e-05
3.5662e-05
3.18685e-05
2.52977e-05
0.000100097
7.49691e-05
6.11915e-05
5.44999e-05
5.08953e-05
4.77587e-05
4.46782e-05
4.20937e-05
4.0455e-05
3.915e-05
3.84075e-05
3.79593e-05
3.77274e-05
3.77256e-05
3.80362e-05
3.80099e-05
3.59066e-05
3.46662e-05
2.62833e-05
2.5289e-05
9.99935e-05
7.50047e-05
6.13304e-05
5.47402e-05
5.12306e-05
4.80795e-05
4.50211e-05
4.24523e-05
4.07074e-05
3.93719e-05
3.85326e-05
3.8059e-05
3.77541e-05
3.77111e-05
3.80189e-05
3.80363e-05
3.59641e-05
3.4756e-05
2.6475e-05
2.52579e-05
9.48725e-05
8.09687e-05
7.5853e-05
7.57304e-05
7.75676e-05
7.71175e-05
7.55749e-05
7.19717e-05
6.52147e-05
5.92754e-05
5.3122e-05
4.87102e-05
4.49559e-05
4.10655e-05
3.89921e-05
3.68221e-05
3.75427e-05
3.56213e-05
3.19986e-05
2.51842e-05
9.1683e-05
9.80301e-05
0.000100456
0.0001094
0.000118733
0.000124939
0.000127536
0.00012765
0.00012232
0.000113598
0.000101577
8.75379e-05
7.1467e-05
6.21368e-05
5.53568e-05
4.53987e-05
4.04954e-05
3.67321e-05
3.46211e-05
2.49977e-05
8.47631e-05
9.9486e-05
0.000107809
0.00012434
0.000140442
0.00015433
0.000163582
0.000167229
0.000167383
0.000162752
0.00015341
0.000139358
0.000120317
9.2801e-05
7.54919e-05
5.7722e-05
4.63347e-05
3.92479e-05
3.6548e-05
2.47297e-05
7.90205e-05
0.000100691
0.000114972
0.000131326
0.000148404
0.000163667
0.00017585
0.000185714
0.000190425
0.000190225
0.0001841
0.000172706
0.000155864
0.00013262
0.000105575
7.90365e-05
5.63312e-05
4.2635e-05
3.81709e-05
2.44864e-05
6.61504e-05
9.88505e-05
0.000115585
0.000133184
0.000149596
0.000166028
0.000180273
0.000190136
0.000195156
0.000195471
0.000191675
0.000182249
0.000167432
0.000145762
0.000118439
8.7146e-05
6.22112e-05
4.60816e-05
3.98159e-05
2.39817e-05
5.00333e-05
7.83968e-05
9.8553e-05
0.000116845
0.000136
0.000150747
0.00016269
0.000171376
0.000176228
0.000177026
0.000173062
0.000166279
0.000155065
0.000136338
0.000112662
8.23413e-05
5.95792e-05
4.48425e-05
4.17667e-05
2.33114e-05
4.27992e-05
6.71004e-05
8.34346e-05
8.9827e-05
9.65604e-05
0.000102028
0.000106804
0.000111947
0.000116434
0.000119672
0.000120054
0.000118494
0.000111218
0.000103539
8.92021e-05
6.82298e-05
5.26389e-05
4.52728e-05
4.46932e-05
2.2301e-05
3.17193e-05
3.99543e-05
4.29539e-05
4.34463e-05
4.38986e-05
4.47885e-05
4.62138e-05
4.8205e-05
5.05723e-05
5.31664e-05
5.54959e-05
5.74493e-05
5.8588e-05
5.82257e-05
5.58552e-05
5.16806e-05
4.78051e-05
4.98353e-05
4.94907e-05
3.53517e-05
4.25111e-05
4.64199e-05
4.81898e-05
4.93125e-05
5.01181e-05
5.07662e-05
5.12931e-05
5.1739e-05
5.21143e-05
5.24446e-05
5.27547e-05
5.30565e-05
5.33805e-05
5.37835e-05
5.41594e-05
5.46072e-05
5.52154e-05
5.71534e-05
5.46236e-05
)
;

boundaryField
{
    movingWall
    {
        type            nutkWallFunction;
        Cmu             0.09;
        kappa           0.41;
        E               9.8;
        value           nonuniform List<scalar> 
20
(
0
0
0
1.51643e-07
3.37848e-07
4.71095e-07
5.78056e-07
6.64905e-07
7.38288e-07
8.0002e-07
8.54273e-07
9.05187e-07
9.54684e-07
1.0078e-06
1.07377e-06
1.13525e-06
1.20839e-06
1.30762e-06
1.6226e-06
1.21152e-06
)
;
    }
    movingWallBottom
    {
        type            nutkWallFunction;
        Cmu             0.09;
        kappa           0.41;
        E               9.8;
        value           nonuniform List<scalar> 
20
(
0
0
0
1.51082e-07
3.3844e-07
4.72715e-07
5.80702e-07
6.68246e-07
7.42356e-07
8.0442e-07
8.59141e-07
9.10085e-07
9.59777e-07
1.01266e-06
1.07852e-06
1.13984e-06
1.21267e-06
1.31159e-06
1.62575e-06
1.21389e-06
)
;
    }
    fixedWalls
    {
        type            nutkWallFunction;
        Cmu             0.09;
        kappa           0.41;
        E               9.8;
        value           nonuniform List<scalar> 
40
(
0
0
0
0
0
0
0
0
0
0
0
0
0
0
0
0
0
0
0
0
1.21389e-06
3.70177e-07
0
0
0
0
0
0
0
0
0
0
0
0
0
0
0
0
3.68174e-07
1.21152e-06
)
;
    }
    frontAndBack
    {
        type            empty;
    }
}


// ************************************************************************* //
