/*--------------------------------*- C++ -*----------------------------------*\
| =========                 |                                                 |
| \\      /  F ield         | OpenFOAM: The Open Source CFD Toolbox           |
|  \\    /   O peration     | Version:  4.1                                   |
|   \\  /    A nd           | Web:      www.OpenFOAM.org                      |
|    \\/     M anipulation  |                                                 |
\*---------------------------------------------------------------------------*/
FoamFile
{
    version     2.0;
    format      ascii;
    class       volScalarField;
    location    "5.5";
    object      p;
}
// * * * * * * * * * * * * * * * * * * * * * * * * * * * * * * * * * * * * * //

dimensions      [0 2 -2 0 0 0 0];

internalField   nonuniform List<scalar> 
400
(
-1.59578e-07
0.000343593
-0.0038287
-0.0078672
-0.0113649
-0.0143468
-0.0168471
-0.0188723
-0.0204466
-0.0216135
-0.0224187
-0.0228699
-0.0229189
-0.0224417
-0.0212192
-0.0188254
-0.0138772
-0.00526541
0.00805381
0.0287586
-0.00610747
-0.00568065
-0.00758866
-0.0102853
-0.0131822
-0.0158597
-0.0181321
-0.0199567
-0.0213671
-0.0224185
-0.0231629
-0.0236121
-0.0237407
-0.0234317
-0.0224322
-0.0203778
-0.0169468
-0.0111254
-0.00276116
0.0162011
-0.0070504
-0.00757766
-0.00941285
-0.0119106
-0.0145423
-0.0169218
-0.018898
-0.0204703
-0.0216956
-0.0226249
-0.0232957
-0.0237022
-0.0238325
-0.0235851
-0.0229404
-0.0214914
-0.019216
-0.0153605
-0.01137
-0.000318924
-0.00852732
-0.00950874
-0.0113919
-0.01381
-0.0161929
-0.0182613
-0.0199373
-0.0212525
-0.02227
-0.0230405
-0.0235969
-0.0239469
-0.0240787
-0.0239186
-0.0234135
-0.0223582
-0.0208237
-0.0179108
-0.0163923
-0.00993214
-0.00904105
-0.0104175
-0.0123905
-0.0147887
-0.0170682
-0.0190043
-0.0205444
-0.0217261
-0.0226181
-0.0232811
-0.0237546
-0.0240523
-0.0241624
-0.0240315
-0.0236002
-0.0227539
-0.0216163
-0.018943
-0.0179475
-0.0129234
-0.00826016
-0.0100831
-0.0122723
-0.0148143
-0.017178
-0.019159
-0.0207158
-0.0218877
-0.0227459
-0.0233582
-0.0237747
-0.024015
-0.0240683
-0.0238864
-0.0234028
-0.022538
-0.021241
-0.0186521
-0.0164335
-0.011528
-0.00624983
-0.00840069
-0.0109393
-0.0137875
-0.0164476
-0.0186686
-0.0203954
-0.0216719
-0.0225808
-0.0231946
-0.0235709
-0.0237391
-0.023685
-0.0233604
-0.0227087
-0.0215833
-0.019667
-0.0164442
-0.0124877
-0.00728028
-0.00327101
-0.00576133
-0.00867386
-0.0119246
-0.015011
-0.0176044
-0.0196175
-0.021085
-0.0220985
-0.0227399
-0.0230781
-0.0231464
-0.0229357
-0.0224055
-0.0214385
-0.0197288
-0.0167677
-0.0121712
-0.00632746
-0.000947449
-0.0001805
-0.00284284
-0.00603198
-0.00963442
-0.013132
-0.0161348
-0.0184987
-0.0202178
-0.0213823
-0.0220889
-0.0224117
-0.0223861
-0.0220188
-0.0212308
-0.019765
-0.0171448
-0.0127926
-0.00642637
0.00146707
0.0059875
0.00186701
-0.000878519
-0.00421514
-0.00805727
-0.0118183
-0.0150338
-0.0175833
-0.0194702
-0.0207685
-0.0215546
-0.0218859
-0.0217937
-0.0212897
-0.0202388
-0.0182828
-0.0148065
-0.0092086
-0.00146268
0.00697455
0.0110986
0.00185075
-0.000889919
-0.00422392
-0.00806705
-0.011833
-0.0150522
-0.0176049
-0.0194948
-0.0207949
-0.0215822
-0.0219154
-0.0218279
-0.0213253
-0.0202767
-0.0183275
-0.0148647
-0.00928813
-0.00156935
0.00684619
0.0109746
-0.000209074
-0.00286047
-0.00604363
-0.00964874
-0.0131553
-0.0161691
-0.0185464
-0.0202781
-0.0214529
-0.022166
-0.0224915
-0.022466
-0.0220975
-0.0213107
-0.0198533
-0.0172543
-0.0129401
-0.00663021
0.0011917
0.00572288
-0.00329287
-0.00577016
-0.008677
-0.0119325
-0.0150323
-0.0176439
-0.0196756
-0.0211583
-0.0221841
-0.0228335
-0.0231751
-0.0232432
-0.0230301
-0.0224961
-0.0215274
-0.0198278
-0.0168963
-0.0123494
-0.00658085
-0.00122188
-0.00625569
-0.00839602
-0.0109323
-0.0137894
-0.0164669
-0.0187086
-0.0204551
-0.0217476
-0.0226679
-0.0232883
-0.0236666
-0.0238324
-0.0237733
-0.0234429
-0.0227854
-0.0216602
-0.0197592
-0.016564
-0.0126655
-0.00749622
-0.00824928
-0.0100639
-0.012254
-0.0148075
-0.0171904
-0.0191933
-0.0207708
-0.0219594
-0.0228291
-0.0234476
-0.0238655
-0.0241026
-0.0241496
-0.0239597
-0.0234676
-0.0225957
-0.0213004
-0.0187151
-0.0165419
-0.011666
-0.00901608
-0.010386
-0.0123612
-0.0147705
-0.0170693
-0.019028
-0.0205897
-0.0217891
-0.0226933
-0.023363
-0.0238381
-0.0241325
-0.0242361
-0.0240956
-0.0236534
-0.0227963
-0.0216474
-0.0189689
-0.018005
-0.0129854
-0.00849405
-0.00946934
-0.0113528
-0.0137803
-0.0161813
-0.0182719
-0.01997
-0.0213035
-0.0223342
-0.0231125
-0.0236715
-0.0240193
-0.0241446
-0.0239736
-0.0234553
-0.0223845
-0.0208342
-0.0179135
-0.016397
-0.00994187
-0.00701642
-0.00753582
-0.00936862
-0.0118726
-0.014519
-0.0169189
-0.0189165
-0.020508
-0.0217478
-0.0226863
-0.0233609
-0.0237661
-0.0238905
-0.0236339
-0.0229738
-0.021506
-0.0192119
-0.0153428
-0.0113403
-0.000290096
-0.0060796
-0.00564358
-0.00754306
-0.0102404
-0.0131481
-0.0158436
-0.0181369
-0.0199817
-0.0214088
-0.0224717
-0.0232218
-0.0236706
-0.0237928
-0.0234717
-0.0224577
-0.0203837
-0.0169307
-0.0110901
-0.002708
0.0162544
1.91872e-05
0.000371382
-0.0037881
-0.00782422
-0.0113304
-0.0143288
-0.0168495
-0.0188951
-0.0204863
-0.0216648
-0.0224754
-0.0229261
-0.0229687
-0.0224803
-0.0212415
-0.0188267
-0.0138532
-0.00521936
0.00811583
0.0288247
)
;

boundaryField
{
    movingWall
    {
        type            zeroGradient;
    }
    movingWallBottom
    {
        type            zeroGradient;
    }
    fixedWalls
    {
        type            zeroGradient;
    }
    frontAndBack
    {
        type            empty;
    }
}


// ************************************************************************* //
