/*--------------------------------*- C++ -*----------------------------------*\
| =========                 |                                                 |
| \\      /  F ield         | OpenFOAM: The Open Source CFD Toolbox           |
|  \\    /   O peration     | Version:  4.1                                   |
|   \\  /    A nd           | Web:      www.OpenFOAM.org                      |
|    \\/     M anipulation  |                                                 |
\*---------------------------------------------------------------------------*/
FoamFile
{
    version     2.0;
    format      ascii;
    class       surfaceScalarField;
    location    "5.5";
    object      phi;
}
// * * * * * * * * * * * * * * * * * * * * * * * * * * * * * * * * * * * * * //

dimensions      [0 3 -1 0 0 0 0];

internalField   nonuniform List<scalar> 
760
(
3.24925e-06
-3.24924e-06
5.50233e-06
-2.25308e-06
7.2482e-06
-1.74587e-06
8.71175e-06
-1.46355e-06
9.93185e-06
-1.2201e-06
1.09293e-05
-9.97457e-07
1.17382e-05
-8.08875e-07
1.23974e-05
-6.59198e-07
1.29415e-05
-5.44157e-07
1.33922e-05
-4.50614e-07
1.37639e-05
-3.71745e-07
1.40549e-05
-2.91005e-07
1.4267e-05
-2.12088e-07
1.4361e-05
-9.39653e-08
1.43419e-05
1.90912e-08
1.39674e-05
3.74464e-07
1.32134e-05
7.53993e-07
1.12799e-05
1.93353e-06
7.74961e-06
3.53027e-06
7.74961e-06
1.07858e-06
-4.32782e-06
2.6249e-06
-3.7994e-06
4.05144e-06
-3.17241e-06
5.17567e-06
-2.58778e-06
6.01748e-06
-2.0619e-06
6.63919e-06
-1.61917e-06
7.09386e-06
-1.26355e-06
7.42131e-06
-9.86648e-07
7.65414e-06
-7.76987e-07
7.81499e-06
-6.11462e-07
7.92237e-06
-4.7912e-07
7.98081e-06
-3.49448e-07
7.98742e-06
-2.18697e-07
7.8803e-06
1.3157e-08
7.67671e-06
2.22681e-07
7.3089e-06
7.4227e-07
6.62537e-06
1.43753e-06
5.41413e-06
3.14477e-06
2.9621e-06
5.9823e-06
1.07117e-05
9.86085e-07
-5.3139e-06
2.17332e-06
-4.98664e-06
3.15977e-06
-4.15886e-06
3.89282e-06
-3.32083e-06
4.40637e-06
-2.57545e-06
4.74571e-06
-1.95852e-06
4.95213e-06
-1.46997e-06
5.06254e-06
-1.09705e-06
5.1038e-06
-8.18251e-07
5.09802e-06
-6.05682e-07
5.05244e-06
-4.33538e-07
4.97373e-06
-2.70744e-07
4.84824e-06
-9.32067e-08
4.69612e-06
1.65282e-07
4.40149e-06
5.17305e-07
4.00098e-06
1.14278e-06
3.3146e-06
2.12391e-06
2.45735e-06
4.00201e-06
1.11505e-06
7.3246e-06
1.18268e-05
7.28362e-07
-6.04226e-06
1.4058e-06
-5.66408e-06
1.99435e-06
-4.74741e-06
2.44276e-06
-3.76923e-06
2.74977e-06
-2.88247e-06
2.93926e-06
-2.14801e-06
3.0421e-06
-1.57281e-06
3.08403e-06
-1.13898e-06
3.08271e-06
-8.16934e-07
3.0502e-06
-5.73167e-07
2.99076e-06
-3.74099e-07
2.90415e-06
-1.84139e-07
2.77897e-06
3.19758e-08
2.61351e-06
3.30739e-07
2.3736e-06
7.57217e-07
2.06403e-06
1.45235e-06
1.58426e-06
2.60368e-06
1.04381e-06
4.54246e-06
4.18915e-07
7.94949e-06
1.22457e-05
3.51058e-07
-6.39332e-06
5.49884e-07
-5.8629e-06
7.4853e-07
-4.94605e-06
9.16008e-07
-3.93671e-06
1.03229e-06
-2.99875e-06
1.10149e-06
-2.2172e-06
1.1348e-06
-1.60612e-06
1.14253e-06
-1.14671e-06
1.13159e-06
-8.05993e-07
1.10601e-06
-5.47586e-07
1.06608e-06
-3.34166e-07
1.00971e-06
-1.27776e-07
9.2985e-07
1.11839e-07
8.2331e-07
4.37279e-07
6.7813e-07
9.02398e-07
4.95423e-07
1.63506e-06
3.19102e-07
2.78e-06
-9.14175e-08
4.95298e-06
-1.77172e-07
8.03525e-06
1.20685e-05
-2.2928e-07
-6.16404e-06
-4.33743e-07
-5.65844e-06
-5.79949e-07
-4.79985e-06
-6.84116e-07
-3.83255e-06
-7.6441e-07
-2.91846e-06
-8.24683e-07
-2.15693e-06
-8.6742e-07
-1.56338e-06
-8.95951e-07
-1.11818e-06
-9.14736e-07
-7.87207e-07
-9.27554e-07
-5.34769e-07
-9.39033e-07
-3.22687e-07
-9.53595e-07
-1.13214e-07
-9.75358e-07
1.33601e-07
-1.00189e-06
4.63815e-07
-1.03197e-06
9.32472e-07
-1.05272e-06
1.65581e-06
-1.06999e-06
2.79727e-06
-9.96681e-07
4.87967e-06
-8.7466e-07
7.91323e-06
1.11938e-05
-7.4249e-07
-5.42155e-06
-1.44959e-06
-4.95134e-06
-1.98208e-06
-4.26735e-06
-2.38566e-06
-3.42897e-06
-2.67691e-06
-2.6272e-06
-2.87946e-06
-1.95439e-06
-3.01494e-06
-1.42789e-06
-3.09998e-06
-1.03314e-06
-3.14879e-06
-7.38392e-07
-3.17102e-06
-5.12548e-07
-3.17482e-06
-3.18885e-07
-3.16797e-06
-1.20061e-07
-3.15128e-06
1.16908e-07
-3.11301e-06
4.25546e-07
-3.04828e-06
8.6774e-07
-2.93965e-06
1.54718e-06
-2.78211e-06
2.63973e-06
-2.40322e-06
4.50077e-06
-1.7612e-06
7.27121e-06
9.43265e-06
-1.33671e-06
-4.08485e-06
-2.54e-06
-3.74805e-06
-3.5047e-06
-3.30265e-06
-4.24541e-06
-2.68826e-06
-4.78814e-06
-2.08447e-06
-5.1723e-06
-1.57022e-06
-5.44078e-06
-1.15941e-06
-5.62698e-06
-8.46944e-07
-5.75534e-06
-6.10028e-07
-5.84285e-06
-4.25044e-07
-5.90152e-06
-2.60208e-07
-5.94016e-06
-8.1424e-08
-5.94738e-06
1.24127e-07
-5.90077e-06
3.7893e-07
-5.7722e-06
7.39178e-07
-5.51703e-06
1.29201e-06
-5.06478e-06
2.18748e-06
-4.18985e-06
3.62584e-06
-2.50423e-06
5.58559e-06
6.92842e-06
-1.87155e-06
-2.2133e-06
-3.59131e-06
-2.02829e-06
-5.07568e-06
-1.81828e-06
-6.27005e-06
-1.49389e-06
-7.18046e-06
-1.17405e-06
-7.84948e-06
-9.01205e-07
-8.33178e-06
-6.77109e-07
-8.68241e-06
-4.96315e-07
-8.941e-06
-3.51445e-07
-9.13003e-06
-2.3601e-07
-9.25949e-06
-1.3075e-07
-9.32572e-06
-1.51924e-08
-9.30167e-06
1.00075e-07
-9.16077e-06
2.38028e-07
-8.85692e-06
4.35331e-07
-8.29753e-06
7.32628e-07
-7.33588e-06
1.22583e-06
-5.72396e-06
2.01392e-06
-3.299e-06
3.16064e-06
3.62942e-06
-2.22915e-06
1.58522e-08
-4.27372e-06
1.62816e-08
-6.11339e-06
2.13827e-08
-7.63448e-06
2.72009e-08
-8.83902e-06
3.04868e-08
-9.77258e-06
3.23513e-08
-1.048e-05
3.02941e-08
-1.10035e-05
2.71577e-08
-1.1377e-05
2.208e-08
-1.16296e-05
1.6573e-08
-1.1771e-05
1.06919e-08
-1.17907e-05
4.51796e-09
-1.16892e-05
-1.4826e-09
-1.14436e-05
-7.54396e-09
-1.09952e-05
-1.3048e-08
-1.0242e-05
-2.05757e-08
-8.98676e-06
-2.94164e-08
-6.92988e-06
-4.29631e-08
-3.70896e-06
-6.02872e-08
-7.95378e-08
-2.22161e-06
2.23746e-06
-4.26085e-06
2.05553e-06
-6.0954e-06
1.85592e-06
-7.61161e-06
1.54341e-06
-8.81088e-06
1.22976e-06
-9.73716e-06
9.58631e-07
-1.04388e-05
7.31919e-07
-1.09579e-05
5.46257e-07
-1.13287e-05
3.92866e-07
-1.15799e-05
2.67802e-07
-1.17209e-05
1.51716e-07
-1.17415e-05
2.50457e-08
-1.16403e-05
-1.02644e-07
-1.13958e-05
-2.52013e-07
-1.09494e-05
-4.59425e-07
-1.01999e-05
-7.701e-07
-8.94978e-06
-1.27956e-06
-6.90027e-06
-2.09248e-06
-3.69044e-06
-3.27011e-06
-3.76998e-06
-1.86122e-06
4.09868e-06
-3.57396e-06
3.76827e-06
-5.05213e-06
3.33409e-06
-6.23974e-06
2.73102e-06
-7.14318e-06
2.1332e-06
-7.80271e-06
1.61816e-06
-8.27397e-06
1.20318e-06
-8.61178e-06
8.84062e-07
-8.85761e-06
6.38701e-07
-9.03512e-06
4.45307e-07
-9.15543e-06
2.72033e-07
-9.21613e-06
8.57459e-08
-9.19142e-06
-1.27356e-07
-9.05309e-06
-3.90343e-07
-8.75465e-06
-7.57867e-07
-8.20511e-06
-1.31964e-06
-7.25829e-06
-2.22637e-06
-5.66706e-06
-3.68371e-06
-3.26685e-06
-5.67033e-06
-7.03683e-06
-1.3284e-06
5.42707e-06
-2.52676e-06
4.96664e-06
-3.48769e-06
4.29502e-06
-4.22356e-06
3.46689e-06
-4.75934e-06
2.66899e-06
-5.1351e-06
1.99392e-06
-5.39392e-06
1.46201e-06
-5.56981e-06
1.05995e-06
-5.68813e-06
7.57016e-07
-5.76593e-06
5.23112e-07
-5.81569e-06
3.21794e-07
-5.84674e-06
1.16789e-07
-5.84866e-06
-1.25433e-07
-5.79958e-06
-4.39425e-07
-5.67169e-06
-8.85757e-07
-5.42187e-06
-1.56945e-06
-4.9821e-06
-2.66615e-06
-4.13034e-06
-4.53546e-06
-2.47649e-06
-7.32419e-06
-9.51331e-06
-7.36555e-07
6.16363e-06
-1.43947e-06
5.66955e-06
-1.96797e-06
4.82353e-06
-2.36646e-06
3.86537e-06
-2.65147e-06
2.95401e-06
-2.84753e-06
2.18998e-06
-2.97658e-06
1.59105e-06
-3.05554e-06
1.13892e-06
-3.09911e-06
8.00584e-07
-3.11698e-06
5.40977e-07
-3.11743e-06
3.22242e-07
-3.10793e-06
1.07295e-07
-3.08903e-06
-1.44336e-07
-3.04982e-06
-4.7863e-07
-2.98461e-06
-9.50972e-07
-2.87645e-06
-1.67761e-06
-2.7215e-06
-2.8211e-06
-2.35e-06
-4.90695e-06
-1.73249e-06
-7.9417e-06
-1.12458e-05
-2.2449e-07
6.38812e-06
-4.24949e-07
5.87001e-06
-5.67012e-07
4.96559e-06
-6.65698e-07
3.96406e-06
-7.40176e-07
3.02848e-06
-7.95056e-07
2.24486e-06
-8.33064e-07
1.62906e-06
-8.57743e-07
1.1636e-06
-8.73657e-07
8.16498e-07
-8.8459e-07
5.5191e-07
-8.95174e-07
3.32826e-07
-9.09526e-07
1.21647e-07
-9.31708e-07
-1.22155e-07
-9.59342e-07
-4.50996e-07
-9.91215e-07
-9.191e-07
-1.01473e-06
-1.65409e-06
-1.03327e-06
-2.80257e-06
-9.67304e-07
-4.97292e-06
-8.56475e-07
-8.05253e-06
-1.21023e-05
3.54419e-07
6.0337e-06
5.57343e-07
5.66708e-06
7.60917e-07
4.76201e-06
9.34079e-07
3.7909e-06
1.05614e-06
2.90642e-06
1.13053e-06
2.17047e-06
1.16806e-06
1.59154e-06
1.17884e-06
1.15281e-06
1.16978e-06
8.25552e-07
1.14499e-06
5.767e-07
1.1048e-06
3.73015e-07
1.04748e-06
1.78973e-07
9.65852e-07
-4.05307e-08
8.57211e-07
-3.42355e-07
7.09524e-07
-7.71413e-07
5.24351e-07
-1.46892e-06
3.41548e-07
-2.61977e-06
-7.63505e-08
-4.55502e-06
-1.59138e-07
-7.96974e-06
-1.22614e-05
7.29559e-07
5.30414e-06
1.411e-06
4.98565e-06
2.00463e-06
4.16838e-06
2.45949e-06
3.33604e-06
2.77306e-06
2.59285e-06
2.96824e-06
1.97529e-06
3.07549e-06
1.48429e-06
3.12041e-06
1.10789e-06
3.12068e-06
8.2528e-07
3.08849e-06
6.08893e-07
3.02821e-06
4.33294e-07
2.93989e-06
2.67291e-07
2.81188e-06
8.74807e-08
2.64335e-06
-1.73827e-07
2.39952e-06
-5.27584e-07
2.08538e-06
-1.15478e-06
1.60075e-06
-2.13514e-06
1.05945e-06
-4.01373e-06
4.25061e-07
-7.33535e-06
-1.18364e-05
9.84801e-07
4.31934e-06
2.1741e-06
3.79635e-06
3.16579e-06
3.17669e-06
3.90559e-06
2.59623e-06
4.42612e-06
2.07232e-06
4.77188e-06
1.62953e-06
4.98348e-06
1.27269e-06
5.09757e-06
9.93802e-07
5.14081e-06
7.82034e-07
5.1355e-06
6.14202e-07
5.0889e-06
4.79901e-07
5.00828e-06
3.47913e-07
4.88037e-06
2.15392e-07
4.72338e-06
-1.68417e-08
4.42414e-06
-2.28342e-07
4.01909e-06
-7.49733e-07
3.32816e-06
-1.44421e-06
2.46671e-06
-3.15228e-06
1.11941e-06
-5.98805e-06
-1.07169e-05
1.07405e-06
3.24529e-06
2.62005e-06
2.25034e-06
4.0504e-06
1.74634e-06
5.18011e-06
1.46653e-06
6.02828e-06
1.22415e-06
6.6562e-06
1.00161e-06
7.11618e-06
8.12704e-07
7.44776e-06
6.62224e-07
7.6833e-06
5.46501e-07
7.84552e-06
4.51975e-07
7.95287e-06
3.72552e-07
8.01002e-06
2.90764e-07
8.01382e-06
2.11592e-07
7.90447e-06
9.25091e-08
7.69671e-06
-2.05786e-08
7.32469e-06
-3.77715e-07
6.6369e-06
-7.56417e-07
5.42136e-06
-1.93674e-06
2.96581e-06
-3.5325e-06
-7.75113e-06
3.24529e-06
5.49564e-06
7.24197e-06
8.7085e-06
9.93265e-06
1.09343e-05
1.1747e-05
1.24092e-05
1.29557e-05
1.34077e-05
1.37802e-05
1.4071e-05
1.42826e-05
1.43751e-05
1.43545e-05
1.39768e-05
1.32204e-05
1.12836e-05
7.75113e-06
)
;

boundaryField
{
    movingWall
    {
        type            calculated;
        value           uniform 0;
    }
    movingWallBottom
    {
        type            calculated;
        value           uniform 0;
    }
    fixedWalls
    {
        type            calculated;
        value           uniform 0;
    }
    frontAndBack
    {
        type            empty;
        value           nonuniform 0();
    }
}


// ************************************************************************* //
