/*--------------------------------*- C++ -*----------------------------------*\
| =========                 |                                                 |
| \\      /  F ield         | OpenFOAM: The Open Source CFD Toolbox           |
|  \\    /   O peration     | Version:  4.1                                   |
|   \\  /    A nd           | Web:      www.OpenFOAM.org                      |
|    \\/     M anipulation  |                                                 |
\*---------------------------------------------------------------------------*/
FoamFile
{
    version     2.0;
    format      ascii;
    class       volVectorField;
    location    "5.5";
    object      U;
}
// * * * * * * * * * * * * * * * * * * * * * * * * * * * * * * * * * * * * * //

dimensions      [0 1 -1 0 0 0 0];

internalField   nonuniform List<vector> 
400
(
(0.0644279 -0.0990401 0)
(0.0784177 -0.0643724 0)
(0.125574 -0.0440871 0)
(0.160857 -0.0344564 0)
(0.187855 -0.0284555 0)
(0.2098 -0.0239163 0)
(0.227457 -0.0202406 0)
(0.242377 -0.017261 0)
(0.254053 -0.0148008 0)
(0.264163 -0.0127747 0)
(0.271627 -0.0109628 0)
(0.278376 -0.00936991 0)
(0.282446 -0.00767042 0)
(0.285891 -0.0059754 0)
(0.285707 -0.00364796 0)
(0.282143 -0.000330066 0)
(0.271243 0.00145535 0)
(0.251998 0.012047 0)
(0.18957 0.0226335 0)
(0.172869 0.11741 0)
(0.0165428 -0.052781 0)
(0.0326654 -0.0435528 0)
(0.0665143 -0.0380216 0)
(0.0919475 -0.0324572 0)
(0.11197 -0.026756 0)
(0.127114 -0.0213979 0)
(0.138054 -0.016829 0)
(0.14603 -0.013209 0)
(0.151346 -0.0105417 0)
(0.155296 -0.00839814 0)
(0.157417 -0.00673555 0)
(0.159267 -0.00484084 0)
(0.159082 -0.00316038 0)
(0.158881 0.000477301 0)
(0.154205 0.00352567 0)
(0.150765 0.0121147 0)
(0.135839 0.0221677 0)
(0.128276 0.0512004 0)
(0.0661817 0.0948943 0)
(0.0904349 0.165192 0)
(0.0116677 -0.103643 0)
(0.0306278 -0.0956559 0)
(0.0532128 -0.0808352 0)
(0.0703287 -0.0662122 0)
(0.0832202 -0.0522207 0)
(0.0921643 -0.0402158 0)
(0.0976749 -0.030653 0)
(0.100728 -0.0233562 0)
(0.102047 -0.0178962 0)
(0.102298 -0.0137096 0)
(0.101599 -0.0103369 0)
(0.100442 -0.00724408 0)
(0.0980209 -0.00394084 0)
(0.095796 0.000545119 0)
(0.0900566 0.00678317 0)
(0.0858259 0.0185124 0)
(0.0702234 0.0361688 0)
(0.0688395 0.0739853 0)
(0.013594 0.137057 0)
(0.0500965 0.223848 0)
(0.00728177 -0.117024 0)
(0.0212825 -0.109596 0)
(0.0330181 -0.0910316 0)
(0.0441706 -0.071671 0)
(0.0522448 -0.0549071 0)
(0.0574128 -0.0412607 0)
(0.0603046 -0.030535 0)
(0.0616312 -0.0223817 0)
(0.0619191 -0.0162866 0)
(0.0615073 -0.0116575 0)
(0.0605284 -0.00789871 0)
(0.0590594 -0.00434931 0)
(0.0568428 -0.000365159 0)
(0.0541102 0.00522667 0)
(0.0496107 0.0130431 0)
(0.0456249 0.0261937 0)
(0.033345 0.0478642 0)
(0.0375382 0.0873268 0)
(-0.00624574 0.156787 0)
(0.0324363 0.252163 0)
(0.00275229 -0.127328 0)
(0.00929839 -0.118571 0)
(0.0118738 -0.0996319 0)
(0.016264 -0.0792166 0)
(0.0195184 -0.0603062 0)
(0.0215804 -0.0445973 0)
(0.0226333 -0.0323687 0)
(0.0229996 -0.0231736 0)
(0.0229002 -0.0163592 0)
(0.022488 -0.0112237 0)
(0.0217953 -0.00703879 0)
(0.0208098 -0.00301924 0)
(0.0194056 0.00160707 0)
(0.0175806 0.00787919 0)
(0.0149314 0.0168783 0)
(0.0126529 0.0312644 0)
(0.00439306 0.0544057 0)
(0.0124926 0.095849 0)
(-0.0192882 0.164586 0)
(0.0177056 0.253457 0)
(-0.00557951 -0.127925 0)
(-0.00599773 -0.116676 0)
(-0.0114818 -0.0987407 0)
(-0.0133422 -0.0787343 0)
(-0.0147736 -0.0599669 0)
(-0.0159503 -0.0443123 0)
(-0.0168766 -0.0320753 0)
(-0.0175719 -0.02291 0)
(-0.0180446 -0.0161051 0)
(-0.0183857 -0.0109083 0)
(-0.0186554 -0.00657333 0)
(-0.0189424 -0.00233193 0)
(-0.0193664 0.00259305 0)
(-0.0198936 0.00921113 0)
(-0.0205158 0.0187626 0)
(-0.0210357 0.0335042 0)
(-0.024008 0.0565401 0)
(-0.0140094 0.0982928 0)
(-0.0326912 0.161842 0)
(0.00837631 0.240386 0)
(-0.0119647 -0.115578 0)
(-0.0222228 -0.107191 0)
(-0.0362485 -0.0917674 0)
(-0.0451544 -0.0735448 0)
(-0.0513723 -0.0562043 0)
(-0.0559207 -0.0416956 0)
(-0.0590645 -0.0303466 0)
(-0.0612155 -0.0218082 0)
(-0.0625203 -0.0154788 0)
(-0.0632247 -0.0106583 0)
(-0.0635114 -0.00654977 0)
(-0.0635405 -0.00241954 0)
(-0.0633832 0.0025083 0)
(-0.0629434 0.00911122 0)
(-0.0623592 0.0181049 0)
(-0.0613777 0.0317743 0)
(-0.0592374 0.0543395 0)
(-0.0485832 0.0954491 0)
(-0.0505847 0.156595 0)
(-0.00653263 0.213432 0)
(-0.0203815 -0.0944426 0)
(-0.0393471 -0.0871572 0)
(-0.0627856 -0.076199 0)
(-0.079844 -0.0616926 0)
(-0.0916034 -0.0477272 0)
(-0.100343 -0.0358013 0)
(-0.106369 -0.0263351 0)
(-0.110832 -0.0191972 0)
(-0.11387 -0.0137703 0)
(-0.116024 -0.00952333 0)
(-0.117532 -0.00583358 0)
(-0.118589 -0.00200519 0)
(-0.119275 0.00264548 0)
(-0.119423 0.00868335 0)
(-0.118787 0.0174528 0)
(-0.115757 0.0311335 0)
(-0.108083 0.0530202 0)
(-0.0912397 0.0889274 0)
(-0.067911 0.138247 0)
(-0.0192252 0.173424 0)
(-0.0269784 -0.0614873 0)
(-0.05518 -0.0572538 0)
(-0.0892039 -0.0508082 0)
(-0.116813 -0.0411585 0)
(-0.136391 -0.0317655 0)
(-0.151737 -0.0241291 0)
(-0.162274 -0.0180225 0)
(-0.170417 -0.0132023 0)
(-0.176237 -0.00942149 0)
(-0.180876 -0.00641376 0)
(-0.184052 -0.00363922 0)
(-0.186283 -0.000619845 0)
(-0.187502 0.00311614 0)
(-0.18699 0.00784605 0)
(-0.183762 0.0144256 0)
(-0.175707 0.0245117 0)
(-0.159144 0.0408685 0)
(-0.129751 0.0663581 0)
(-0.0809154 0.0999963 0)
(-0.0455655 0.115602 0)
(-0.0318106 -0.0215985 0)
(-0.0651787 -0.0198383 0)
(-0.106335 -0.0179471 0)
(-0.14191 -0.0150282 0)
(-0.166845 -0.0121821 0)
(-0.187718 -0.0092192 0)
(-0.203159 -0.00665095 0)
(-0.215374 -0.00463555 0)
(-0.224029 -0.00305104 0)
(-0.230458 -0.00180411 0)
(-0.234365 -0.000685334 0)
(-0.236363 0.000369127 0)
(-0.236721 0.00188158 0)
(-0.23466 0.00349845 0)
(-0.229054 0.00606886 0)
(-0.216581 0.00986374 0)
(-0.193436 0.016234 0)
(-0.155241 0.025929 0)
(-0.100128 0.038337 0)
(-0.0500302 0.0426849 0)
(-0.0316877 0.0221629 0)
(-0.0649751 0.0204378 0)
(-0.106015 0.0187484 0)
(-0.141505 0.0160533 0)
(-0.166369 0.0133198 0)
(-0.187063 0.0104292 0)
(-0.202395 0.00778929 0)
(-0.214502 0.00565982 0)
(-0.223079 0.00389004 0)
(-0.229466 0.0024362 0)
(-0.233355 0.00108459 0)
(-0.235425 -0.000227535 0)
(-0.235682 -0.00196858 0)
(-0.233698 -0.00386575 0)
(-0.228081 -0.0066903 0)
(-0.215709 -0.0108351 0)
(-0.192649 -0.0176203 0)
(-0.154621 -0.0279327 0)
(-0.0996582 -0.0410715 0)
(-0.0494807 -0.0462379 0)
(-0.0268171 0.0618701 0)
(-0.0548824 0.0577321 0)
(-0.0887871 0.0514966 0)
(-0.116303 0.0420879 0)
(-0.135718 0.0328339 0)
(-0.150918 0.0251837 0)
(-0.161242 0.019014 0)
(-0.169148 0.0140875 0)
(-0.174696 0.0101352 0)
(-0.179089 0.00694586 0)
(-0.18204 0.00398153 0)
(-0.184118 0.000771209 0)
(-0.185248 -0.00314142 0)
(-0.184767 -0.00808083 0)
(-0.181603 -0.0148377 0)
(-0.173717 -0.0251475 0)
(-0.157414 -0.0417807 0)
(-0.128412 -0.0677054 0)
(-0.0802589 -0.101918 0)
(-0.044637 -0.117919 0)
(-0.0202417 0.0946413 0)
(-0.0391059 0.0875074 0)
(-0.0624817 0.0767781 0)
(-0.0794822 0.0624797 0)
(-0.091112 0.0486059 0)
(-0.0997054 0.0366574 0)
(-0.105535 0.027099 0)
(-0.109791 0.0198206 0)
(-0.112633 0.0142382 0)
(-0.114576 0.00983499 0)
(-0.115899 0.00598534 0)
(-0.116781 0.00202394 0)
(-0.117337 -0.00274751 0)
(-0.117379 -0.00888799 0)
(-0.116696 -0.0177279 0)
(-0.113743 -0.0314969 0)
(-0.10626 -0.0535121 0)
(-0.0897441 -0.089701 0)
(-0.0673241 -0.139518 0)
(-0.0187009 -0.175304 0)
(-0.0118662 0.115639 0)
(-0.0220438 0.107458 0)
(-0.0360086 0.0922851 0)
(-0.0448434 0.0742517 0)
(-0.0509385 0.0569725 0)
(-0.0553558 0.042414 0)
(-0.0583631 0.0309554 0)
(-0.0603851 0.0222727 0)
(-0.0615742 0.0157857 0)
(-0.0621832 0.0108111 0)
(-0.0623914 0.00655966 0)
(-0.0623579 0.00231007 0)
(-0.0621544 -0.00271872 0)
(-0.0616763 -0.00940949 0)
(-0.0610613 -0.0184908 0)
(-0.060065 -0.0322182 0)
(-0.0580037 -0.0547725 0)
(-0.0473449 -0.0958721 0)
(-0.0498892 -0.157116 0)
(-0.00618881 -0.214587 0)
(-0.00549204 0.127873 0)
(-0.00585577 0.116864 0)
(-0.0112663 0.0991705 0)
(-0.0130387 0.0793352 0)
(-0.0143546 0.0606192 0)
(-0.0154153 0.0449188 0)
(-0.0162353 0.0325788 0)
(-0.0168432 0.023281 0)
(-0.0172456 0.0163371 0)
(-0.0175401 0.0110066 0)
(-0.0177816 0.00654842 0)
(-0.0180573 0.00220263 0)
(-0.0184837 -0.00280956 0)
(-0.0190242 -0.00950346 0)
(-0.0196736 -0.0191201 0)
(-0.0202134 -0.033934 0)
(-0.0232834 -0.0570595 0)
(-0.0132687 -0.0988316 0)
(-0.0322387 -0.162371 0)
(0.00854401 -0.241216 0)
(0.00279758 0.127201 0)
(0.00940148 0.118686 0)
(0.0120648 0.0999902 0)
(0.016555 0.0797235 0)
(0.0199288 0.0608572 0)
(0.0221068 0.0451074 0)
(0.023259 0.0327898 0)
(0.0237002 0.0234829 0)
(0.0236517 0.0165509 0)
(0.0232658 0.0113009 0)
(0.0225779 0.0070118 0)
(0.0215805 0.0029026 0)
(0.0201464 -0.00179762 0)
(0.0182857 -0.00813545 0)
(0.0155862 -0.0171909 0)
(0.0132532 -0.0316187 0)
(0.00490157 -0.0547726 0)
(0.0130316 -0.0961445 0)
(-0.0189782 -0.164883 0)
(0.0178452 -0.253943 0)
(0.00732769 0.116826 0)
(0.0213502 0.109611 0)
(0.0331639 0.0912817 0)
(0.0444249 0.0720492 0)
(0.0526351 0.0553248 0)
(0.0579326 0.0416557 0)
(0.0609312 0.0308686 0)
(0.0623351 0.0226318 0)
(0.0626695 0.0164456 0)
(0.0622767 0.0117261 0)
(0.0612914 0.00788472 0)
(0.0597973 0.00425928 0)
(0.0575327 0.000214764 0)
(0.0547451 -0.00542519 0)
(0.0501686 -0.0132884 0)
(0.0461123 -0.0264821 0)
(0.0337282 -0.0481501 0)
(0.0378471 -0.0876062 0)
(-0.00600496 -0.157154 0)
(0.0325043 -0.252392 0)
(0.0116657 0.103452 0)
(0.0306107 0.0956149 0)
(0.053268 0.0809748 0)
(0.0705088 0.0664517 0)
(0.083532 0.052514 0)
(0.0926158 0.0405068 0)
(0.0982494 0.0309062 0)
(0.101398 0.0235517 0)
(0.102775 0.0180291 0)
(0.103052 0.0137794 0)
(0.102344 0.0103496 0)
(0.101159 0.00720071 0)
(0.0986894 0.0038516 0)
(0.0963978 -0.0006819 0)
(0.0905538 -0.00695225 0)
(0.0862541 -0.0187069 0)
(0.0705312 -0.0363489 0)
(0.069077 -0.074174 0)
(0.0137184 -0.137186 0)
(0.0501741 -0.223996 0)
(0.0164814 0.0526301 0)
(0.0325517 0.0434605 0)
(0.0664567 0.0380525 0)
(0.0919693 0.032573 0)
(0.112105 0.0269033 0)
(0.127378 0.0215467 0)
(0.138435 0.016962 0)
(0.146517 0.013313 0)
(0.151901 0.0106172 0)
(0.155903 0.00844008 0)
(0.158029 0.00675384 0)
(0.159875 0.00482495 0)
(0.15964 0.00312842 0)
(0.15939 -0.0005468 0)
(0.154635 -0.00359316 0)
(0.151136 -0.0122191 0)
(0.136102 -0.0222494 0)
(0.128464 -0.0512877 0)
(0.0662923 -0.0949786 0)
(0.0904843 -0.165252 0)
(0.0643667 0.0990155 0)
(0.0783254 0.0643366 0)
(0.125438 0.0440621 0)
(0.160749 0.0344504 0)
(0.187804 0.0284635 0)
(0.209836 0.0239287 0)
(0.227571 0.0202574 0)
(0.242575 0.0172756 0)
(0.254305 0.0148182 0)
(0.264467 0.0127867 0)
(0.271946 0.0109779 0)
(0.278711 0.00937516 0)
(0.282762 0.0076797 0)
(0.286193 0.00597155 0)
(0.285961 0.00365573 0)
(0.28236 0.000320301 0)
(0.271403 -0.00145204 0)
(0.252111 -0.0120657 0)
(0.189614 -0.0226355 0)
(0.172887 -0.117404 0)
)
;

boundaryField
{
    movingWall
    {
        type            fixedValue;
        value           uniform (1 0 0);
    }
    movingWallBottom
    {
        type            fixedValue;
        value           uniform (1 0 0);
    }
    fixedWalls
    {
        type            noSlip;
    }
    frontAndBack
    {
        type            empty;
    }
}


// ************************************************************************* //
