/*--------------------------------*- C++ -*----------------------------------*\
| =========                 |                                                 |
| \\      /  F ield         | OpenFOAM: The Open Source CFD Toolbox           |
|  \\    /   O peration     | Version:  4.1                                   |
|   \\  /    A nd           | Web:      www.OpenFOAM.org                      |
|    \\/     M anipulation  |                                                 |
\*---------------------------------------------------------------------------*/
FoamFile
{
    version     2.0;
    format      ascii;
    class       volScalarField;
    location    "8";
    object      epsilon;
}
// * * * * * * * * * * * * * * * * * * * * * * * * * * * * * * * * * * * * * //

dimensions      [0 2 -3 0 0 0 0];

internalField   nonuniform List<scalar> 
400
(
0.040001
0.0701639
0.09157
0.103
0.110715
0.116415
0.121133
0.124976
0.128307
0.131043
0.133529
0.135753
0.138028
0.140353
0.143473
0.1464
0.149889
0.154793
0.171193
0.149071
0.00972542
0.00801498
0.00870584
0.0096493
0.010623
0.0116876
0.0129514
0.0144447
0.0160858
0.0178964
0.019717
0.0217156
0.0234522
0.0256165
0.0269812
0.0308078
0.0360313
0.0485666
0.0749031
0.110581
0.0109988
0.00574681
0.00423356
0.00382139
0.00384799
0.00406471
0.00456295
0.00528792
0.00614463
0.00709671
0.00804094
0.00898182
0.00976059
0.0104776
0.0109062
0.0118325
0.0135224
0.0196026
0.0368975
0.0811491
0.0120434
0.00512412
0.0036021
0.00326787
0.00335167
0.00366438
0.00421583
0.00487767
0.00556769
0.00621195
0.00672725
0.00705737
0.00717372
0.00715519
0.00702186
0.007127
0.00783826
0.0118761
0.0247968
0.0660621
0.0128474
0.00497177
0.00363985
0.00354281
0.00386291
0.00444166
0.00509339
0.00573431
0.00627059
0.00663956
0.00677733
0.00667797
0.00635283
0.0058654
0.00534222
0.00512586
0.00562585
0.0091163
0.0200215
0.0570298
0.0132614
0.00508845
0.00414735
0.00413037
0.00469775
0.00542445
0.00613254
0.0067147
0.00705911
0.00716318
0.00697181
0.0065127
0.00584273
0.00507288
0.00441015
0.00415931
0.00484691
0.00823959
0.018972
0.0500685
0.0137355
0.00585886
0.00479423
0.00470332
0.00533985
0.00614475
0.00683447
0.00729513
0.00748357
0.00743919
0.00701708
0.00634784
0.00553483
0.00473078
0.00427241
0.00418714
0.00513223
0.0087367
0.0195302
0.0437497
0.0140428
0.00654082
0.00511812
0.00495679
0.00556742
0.00636868
0.00698332
0.00729402
0.00738504
0.00719808
0.00669578
0.0060642
0.00541918
0.00500852
0.00486875
0.00514243
0.00662957
0.010686
0.0211387
0.0370111
0.0141568
0.00725769
0.00511992
0.00451375
0.00449335
0.00493574
0.00522255
0.00541496
0.00548505
0.0054952
0.00547859
0.00550163
0.00567836
0.00603118
0.00670858
0.00796431
0.0103191
0.0145864
0.0211557
0.0288034
0.0141863
0.00761286
0.00489596
0.00377097
0.00344666
0.00339121
0.00347489
0.00367565
0.00393797
0.00430842
0.0047741
0.00538919
0.00617521
0.00721182
0.00859436
0.0104742
0.0129863
0.0160001
0.0174736
0.0160413
0.0141697
0.00759677
0.00490173
0.0037904
0.00347375
0.00342302
0.00351759
0.00371781
0.00397783
0.00433748
0.00479104
0.00538792
0.00615627
0.00717086
0.00853565
0.0104085
0.0129455
0.0161287
0.0177367
0.0167193
0.0141161
0.00720891
0.00507829
0.00447459
0.00445361
0.00490812
0.00521987
0.00543531
0.00551761
0.00552861
0.00548909
0.00547803
0.00558947
0.00588993
0.00648615
0.00768131
0.00996588
0.0142715
0.0211927
0.0294781
0.0139733
0.00647851
0.00504356
0.00485473
0.00543436
0.00622771
0.00684256
0.0071647
0.00726346
0.00710346
0.006617
0.00599267
0.00534058
0.00490431
0.00474984
0.00498836
0.00643394
0.0104392
0.0208954
0.0373039
0.013637
0.00579012
0.00470282
0.00460402
0.00521123
0.0060003
0.00667569
0.00712685
0.00731065
0.00727666
0.00687277
0.00622437
0.00543301
0.00464689
0.00419661
0.00411509
0.00504614
0.00860738
0.0193491
0.0439454
0.0131762
0.00502475
0.00407252
0.00404454
0.00458951
0.00529494
0.00598111
0.00654639
0.00689058
0.00700027
0.00682495
0.00638915
0.0057474
0.00500523
0.00436209
0.00411757
0.0048007
0.00816227
0.0188215
0.0501533
0.0127735
0.00493449
0.003585
0.00347879
0.0037835
0.00434339
0.00497319
0.00559457
0.00612041
0.00648795
0.00663453
0.00655097
0.00625184
0.0057896
0.00529103
0.00509454
0.00559962
0.00906748
0.0198977
0.0570487
0.0119784
0.0050913
0.00356985
0.00322844
0.00330288
0.00359606
0.00412413
0.00476265
0.00543389
0.00606711
0.00658009
0.00691821
0.00705213
0.00704969
0.00694337
0.00706375
0.00778705
0.0118215
0.0247617
0.0660223
0.0109352
0.00571665
0.0042072
0.00378969
0.0038091
0.00400935
0.0044802
0.00517811
0.00600729
0.00693709
0.00786499
0.00880024
0.0095811
0.0103109
0.010755
0.011709
0.0134134
0.0195012
0.0368183
0.0810937
0.00967931
0.00798783
0.00867859
0.0096082
0.0105611
0.0115983
0.012825
0.0142809
0.0158804
0.0176561
0.01944
0.0214177
0.0231345
0.0252982
0.0266788
0.030549
0.0357972
0.0483698
0.0747782
0.110432
0.0400014
0.0702333
0.0916281
0.102987
0.110613
0.11623
0.120867
0.124652
0.127926
0.130635
0.133083
0.135304
0.137562
0.139907
0.143036
0.145974
0.149487
0.154409
0.17086
0.148847
)
;

boundaryField
{
    movingWall
    {
        Cmu             0.09;
        kappa           0.41;
        E               9.8;
        type            epsilonWallFunction;
        value           nonuniform List<scalar> 
20
(
0.0400014
0.0702333
0.0916281
0.102987
0.110613
0.11623
0.120867
0.124652
0.127926
0.130635
0.133083
0.135304
0.137562
0.139907
0.143036
0.145974
0.149487
0.154409
0.17086
0.148847
)
;
    }
    movingWallBottom
    {
        Cmu             0.09;
        kappa           0.41;
        E               9.8;
        type            epsilonWallFunction;
        value           nonuniform List<scalar> 
20
(
0.040001
0.0701639
0.09157
0.103
0.110715
0.116415
0.121133
0.124976
0.128307
0.131043
0.133529
0.135753
0.138028
0.140353
0.143473
0.1464
0.149889
0.154793
0.171193
0.149071
)
;
    }
    fixedWalls
    {
        Cmu             0.09;
        kappa           0.41;
        E               9.8;
        type            epsilonWallFunction;
        value           nonuniform List<scalar> 
40
(
0.040001
0.00972542
0.0109988
0.0120434
0.0128474
0.0132614
0.0137355
0.0140428
0.0141568
0.0141863
0.0141697
0.0141161
0.0139733
0.013637
0.0131762
0.0127735
0.0119784
0.0109352
0.00967931
0.0400014
0.149071
0.110581
0.0811491
0.0660621
0.0570298
0.0500685
0.0437497
0.0370111
0.0288034
0.0160413
0.0167193
0.0294781
0.0373039
0.0439454
0.0501533
0.0570487
0.0660223
0.0810937
0.110432
0.148847
)
;
    }
    frontAndBack
    {
        type            empty;
    }
}


// ************************************************************************* //
