/*--------------------------------*- C++ -*----------------------------------*\
| =========                 |                                                 |
| \\      /  F ield         | OpenFOAM: The Open Source CFD Toolbox           |
|  \\    /   O peration     | Version:  4.1                                   |
|   \\  /    A nd           | Web:      www.OpenFOAM.org                      |
|    \\/     M anipulation  |                                                 |
\*---------------------------------------------------------------------------*/
FoamFile
{
    version     2.0;
    format      ascii;
    class       volScalarField;
    location    "8";
    object      k;
}
// * * * * * * * * * * * * * * * * * * * * * * * * * * * * * * * * * * * * * //

dimensions      [0 2 -2 0 0 0 0];

internalField   nonuniform List<scalar> 
400
(
0.00396345
0.00576459
0.00688432
0.00744589
0.00781322
0.00807914
0.00829598
0.00847051
0.00862036
0.0087425
0.00885273
0.00895075
0.00905046
0.00915181
0.00928696
0.00941286
0.00956181
0.00976926
0.0104476
0.009527
0.00154393
0.00167406
0.00195754
0.00213159
0.00224972
0.00237388
0.00252456
0.00270935
0.00292035
0.00315531
0.00339512
0.00363902
0.00384777
0.00405844
0.0041565
0.00435819
0.00453537
0.00506852
0.00643819
0.00780694
0.00167591
0.00165588
0.00178447
0.00188573
0.00196562
0.00209217
0.0022719
0.00249865
0.00275258
0.00301189
0.00324547
0.00343147
0.00355119
0.00356284
0.00350854
0.00339516
0.00317764
0.00336153
0.0042946
0.00635161
0.0017804
0.00169336
0.00178164
0.00190617
0.00209852
0.00235812
0.00265467
0.0029594
0.00323901
0.0034647
0.00361006
0.00365373
0.0036111
0.00348025
0.00323344
0.0029603
0.00265665
0.00277858
0.00350178
0.0055377
0.00185877
0.00191561
0.00200793
0.00214271
0.00239615
0.0027175
0.00305905
0.00337573
0.00361983
0.00376902
0.00380709
0.00374003
0.00355638
0.00327368
0.00291564
0.00257458
0.00231571
0.0024891
0.00318524
0.00502068
0.00189849
0.00211414
0.00216406
0.00230656
0.00262046
0.00298499
0.0033256
0.00360049
0.0037882
0.00385927
0.00380193
0.00361313
0.0033131
0.00293233
0.00252008
0.00218223
0.00203503
0.00224135
0.0029819
0.00460331
0.00194345
0.00235128
0.0023114
0.00238213
0.00271522
0.00308694
0.00340465
0.00361375
0.0036962
0.0036795
0.00351878
0.00324555
0.00288566
0.00247666
0.00206649
0.00185084
0.00179382
0.00210295
0.00290655
0.00420737
0.00197233
0.00258315
0.00237083
0.0023585
0.00259818
0.00288557
0.00308957
0.00318279
0.00319927
0.00308178
0.00285791
0.00256834
0.00225267
0.00195878
0.00180689
0.00175173
0.00180576
0.00217487
0.00292461
0.00376341
0.00198297
0.00276884
0.00215789
0.00195648
0.00194626
0.0020514
0.00209748
0.00211041
0.0020597
0.0019643
0.00186556
0.0017739
0.00172666
0.00170888
0.00173386
0.00184075
0.0020506
0.00245966
0.00289091
0.0031841
0.00198573
0.00290762
0.00202865
0.00160549
0.00144479
0.00138215
0.00135493
0.00134653
0.0013512
0.00138614
0.00143433
0.00151017
0.00160647
0.0017318
0.0018903
0.0020956
0.00233208
0.00251627
0.00258382
0.00215533
0.00198418
0.00290171
0.00203201
0.00161461
0.00145807
0.00139867
0.00137317
0.00136537
0.00136928
0.00139944
0.00144446
0.00151475
0.00160757
0.0017278
0.00188263
0.00208793
0.00232943
0.00253079
0.00260971
0.00221572
0.00197917
0.00275482
0.00214697
0.00194565
0.00193668
0.00205718
0.00211373
0.00213351
0.00210186
0.00200353
0.00190315
0.00179928
0.00173851
0.00171354
0.00171469
0.00181866
0.00200948
0.00243145
0.00288973
0.00323369
0.00196581
0.00255936
0.00233925
0.00232402
0.00255907
0.00285133
0.00306726
0.00317065
0.00319465
0.00309537
0.00288225
0.00259593
0.00227806
0.00197339
0.00180791
0.0017474
0.00179344
0.00215742
0.00291253
0.00378325
0.00193414
0.00232633
0.00227963
0.00234134
0.00266843
0.00303904
0.00335874
0.0035736
0.00366096
0.00365453
0.00350322
0.00323819
0.00288568
0.00248205
0.00207488
0.00185229
0.0017918
0.00209412
0.00289447
0.00421992
0.00189034
0.00209114
0.0021334
0.00226812
0.00257623
0.00293768
0.00327675
0.00355162
0.00374116
0.00381809
0.00376885
0.00358913
0.0032985
0.00292589
0.0025207
0.00218677
0.00203964
0.00224325
0.00297519
0.00460851
0.00185163
0.00189653
0.00198219
0.00211073
0.00235871
0.0026745
0.00301104
0.00332456
0.00356971
0.00372223
0.00376583
0.00370555
0.00353064
0.00325688
0.00290607
0.00257062
0.00231193
0.00247981
0.00317235
0.00502179
0.00177398
0.00167789
0.0017635
0.00188167
0.00206819
0.00232185
0.00261249
0.00291245
0.00318944
0.00341529
0.00356351
0.0036128
0.00357445
0.0034519
0.00321152
0.00294504
0.00264424
0.00276648
0.00349259
0.00553547
0.00166944
0.00164484
0.00176999
0.00187174
0.00194847
0.00206938
0.0022422
0.00246159
0.00270893
0.0029638
0.0031953
0.00338229
0.00350419
0.00352241
0.00347146
0.00336435
0.00315299
0.00333929
0.00428179
0.00634871
0.00153904
0.00166607
0.00194685
0.00211968
0.00223528
0.00235526
0.00250066
0.00267953
0.00288411
0.00311326
0.00334765
0.00358839
0.00379469
0.00400625
0.00410635
0.00431343
0.00449699
0.00504059
0.00642723
0.00779992
0.00396347
0.00576839
0.00688724
0.00744529
0.0078084
0.00807058
0.00828379
0.00845586
0.00860327
0.00872432
0.00883299
0.00893099
0.00903006
0.00913239
0.00926806
0.00939457
0.00954467
0.00975307
0.0104341
0.00951745
)
;

boundaryField
{
    movingWall
    {
        type            kqRWallFunction;
        value           nonuniform List<scalar> 
20
(
0.00396347
0.00576839
0.00688724
0.00744529
0.0078084
0.00807058
0.00828379
0.00845586
0.00860327
0.00872432
0.00883299
0.00893099
0.00903006
0.00913239
0.00926806
0.00939457
0.00954467
0.00975307
0.0104341
0.00951745
)
;
    }
    movingWallBottom
    {
        type            kqRWallFunction;
        value           nonuniform List<scalar> 
20
(
0.00396345
0.00576459
0.00688432
0.00744589
0.00781322
0.00807914
0.00829598
0.00847051
0.00862036
0.0087425
0.00885273
0.00895075
0.00905046
0.00915181
0.00928696
0.00941286
0.00956181
0.00976926
0.0104476
0.009527
)
;
    }
    fixedWalls
    {
        type            kqRWallFunction;
        value           nonuniform List<scalar> 
40
(
0.00396345
0.00154393
0.00167591
0.0017804
0.00185877
0.00189849
0.00194345
0.00197233
0.00198297
0.00198573
0.00198418
0.00197917
0.00196581
0.00193414
0.00189034
0.00185163
0.00177398
0.00166944
0.00153904
0.00396347
0.009527
0.00780694
0.00635161
0.0055377
0.00502068
0.00460331
0.00420737
0.00376341
0.0031841
0.00215533
0.00221572
0.00323369
0.00378325
0.00421992
0.00460851
0.00502179
0.00553547
0.00634871
0.00779992
0.00951745
)
;
    }
    frontAndBack
    {
        type            empty;
    }
}


// ************************************************************************* //
