/*--------------------------------*- C++ -*----------------------------------*\
| =========                 |                                                 |
| \\      /  F ield         | OpenFOAM: The Open Source CFD Toolbox           |
|  \\    /   O peration     | Version:  4.1                                   |
|   \\  /    A nd           | Web:      www.OpenFOAM.org                      |
|    \\/     M anipulation  |                                                 |
\*---------------------------------------------------------------------------*/
FoamFile
{
    version     2.0;
    format      ascii;
    class       volScalarField;
    location    "8";
    object      nut;
}
// * * * * * * * * * * * * * * * * * * * * * * * * * * * * * * * * * * * * * //

dimensions      [0 2 -1 0 0 0 0];

internalField   nonuniform List<scalar> 
400
(
3.53442e-05
4.26251e-05
4.65813e-05
4.84439e-05
4.96244e-05
5.04618e-05
5.11346e-05
5.16697e-05
5.21248e-05
5.24928e-05
5.28227e-05
5.31144e-05
5.34094e-05
5.37077e-05
5.41028e-05
5.44683e-05
5.48976e-05
5.54899e-05
5.73842e-05
5.47976e-05
2.20592e-05
3.1469e-05
3.96144e-05
4.23795e-05
4.28798e-05
4.33947e-05
4.42889e-05
4.57364e-05
4.77165e-05
5.0068e-05
5.26153e-05
5.48831e-05
5.68168e-05
5.78683e-05
5.76285e-05
5.54875e-05
5.13793e-05
4.76066e-05
4.98046e-05
4.96048e-05
2.29826e-05
4.29412e-05
6.76948e-05
8.3749e-05
9.03663e-05
9.6919e-05
0.000101807
0.00010626
0.000110975
0.000115044
0.000117894
0.000117988
0.000116283
0.000109036
0.000101583
8.7677e-05
6.72045e-05
5.18802e-05
4.49874e-05
4.47431e-05
2.36881e-05
5.03644e-05
7.93097e-05
0.00010007
0.000118251
0.000136575
0.000150446
0.000161598
0.000169587
0.000173918
0.000174355
0.000170244
0.000163597
0.00015235
0.000134005
0.000110664
8.10385e-05
5.85078e-05
4.45065e-05
4.17781e-05
2.42037e-05
6.64271e-05
9.96906e-05
0.000116633
0.000133769
0.000149636
0.000165351
0.000178854
0.000188066
0.000192557
0.000192473
0.000188516
0.000179181
0.000164444
0.000143215
0.000116382
8.57872e-05
6.11656e-05
4.56068e-05
3.97801e-05
2.44607e-05
7.90539e-05
0.000101627
0.000115927
0.000131555
0.000147834
0.000162309
0.000173756
0.000182961
0.000187132
0.000186597
0.000180406
0.000169082
0.000152551
0.000129604
0.000103044
7.68984e-05
5.48725e-05
4.21808e-05
3.80907e-05
2.47484e-05
8.49253e-05
0.000100293
0.000108585
0.000124258
0.000139571
0.000152645
0.000161111
0.000164303
0.000163793
0.000158807
0.000149346
0.000135403
0.000116693
8.99573e-05
7.3631e-05
5.64277e-05
4.55566e-05
3.89306e-05
3.64157e-05
2.49313e-05
9.18145e-05
9.88401e-05
0.000100998
0.000109126
0.000117667
0.00012302
0.000124994
0.000124736
0.000118749
0.000109784
9.78978e-05
8.42761e-05
6.89451e-05
6.03518e-05
5.37043e-05
4.42666e-05
3.98375e-05
3.64165e-05
3.44408e-05
2.49984e-05
9.50693e-05
8.18539e-05
7.63227e-05
7.58707e-05
7.67348e-05
7.58153e-05
7.40255e-05
6.96095e-05
6.31935e-05
5.7173e-05
5.14763e-05
4.72532e-05
4.35777e-05
4.0331e-05
3.829e-05
3.66743e-05
3.73288e-05
3.55538e-05
3.1679e-05
2.50156e-05
9.9947e-05
7.56517e-05
6.15181e-05
5.45072e-05
5.06985e-05
4.7548e-05
4.43957e-05
4.17263e-05
4.01361e-05
3.87837e-05
3.80867e-05
3.76128e-05
3.74277e-05
3.7419e-05
3.77344e-05
3.76915e-05
3.56152e-05
3.43862e-05
2.60634e-05
2.50059e-05
9.97521e-05
7.58129e-05
6.19006e-05
5.50809e-05
5.14358e-05
4.82444e-05
4.5129e-05
4.2421e-05
4.06363e-05
3.91946e-05
3.83266e-05
3.77804e-05
3.74678e-05
3.7371e-05
3.76952e-05
3.77244e-05
3.57401e-05
3.45584e-05
2.64274e-05
2.49743e-05
9.47456e-05
8.16911e-05
7.6141e-05
7.57963e-05
7.76017e-05
7.70337e-05
7.53716e-05
7.20609e-05
6.53459e-05
5.93864e-05
5.31882e-05
4.86658e-05
4.48662e-05
4.07968e-05
3.87534e-05
3.64665e-05
3.72825e-05
3.54625e-05
3.19256e-05
2.489e-05
9.09973e-05
9.76469e-05
0.000100129
0.000108458
0.000117492
0.000123744
0.000126282
0.000126458
0.000121395
0.000112991
0.000101206
8.74549e-05
7.14643e-05
6.19324e-05
5.50894e-05
4.49925e-05
4.01278e-05
3.65369e-05
3.45318e-05
2.46889e-05
8.41194e-05
9.94519e-05
0.00010716
0.000122974
0.000138529
0.00015209
0.000161271
0.000164997
0.000165186
0.000160711
0.000151618
0.000137943
0.000119317
9.23275e-05
7.50378e-05
5.72614e-05
4.58537e-05
3.89691e-05
3.64701e-05
2.4408e-05
7.83239e-05
0.000100582
0.000114474
0.000130151
0.000146687
0.000161565
0.000173418
0.00018281
0.000187422
0.00018731
0.000181459
0.000170374
0.000153934
0.000131096
0.000104522
7.79908e-05
5.54866e-05
4.2327e-05
3.81123e-05
2.41569e-05
6.56022e-05
9.86381e-05
0.00011526
0.000132342
0.000148217
0.000164075
0.000177805
0.000187382
0.000192195
0.000192378
0.000188644
0.000179449
0.000164891
0.000143653
0.000116738
8.59077e-05
6.10369e-05
4.552e-05
3.97845e-05
2.36452e-05
4.9767e-05
7.84045e-05
9.87042e-05
0.000116555
0.000134922
0.000148943
0.000160291
0.000168484
0.000173028
0.000173686
0.0001698
0.000163058
0.000152121
0.000133689
0.000110507
8.0811e-05
5.82673e-05
4.43359e-05
4.17697e-05
2.29381e-05
4.25937e-05
6.7018e-05
8.32016e-05
8.97029e-05
9.61278e-05
0.000100994
0.000105318
0.000109941
0.000113962
0.000116834
0.000116995
0.000115346
0.0001083
0.000100845
8.70016e-05
6.67034e-05
5.14622e-05
4.48157e-05
4.47328e-05
2.20242e-05
3.12753e-05
3.93062e-05
4.20862e-05
4.25794e-05
4.30455e-05
4.38828e-05
4.52485e-05
4.71417e-05
4.94059e-05
5.18832e-05
5.4109e-05
5.60188e-05
5.70991e-05
5.68838e-05
5.48139e-05
5.08439e-05
4.72749e-05
4.97182e-05
4.95824e-05
3.53443e-05
4.26392e-05
4.65912e-05
4.84419e-05
4.9609e-05
5.0435e-05
5.10969e-05
5.16249e-05
5.20729e-05
5.2438e-05
5.27636e-05
5.30555e-05
5.3349e-05
5.36504e-05
5.40475e-05
5.44151e-05
5.48482e-05
5.54437e-05
5.73467e-05
5.477e-05
)
;

boundaryField
{
    movingWall
    {
        type            nutkWallFunction;
        Cmu             0.09;
        kappa           0.41;
        E               9.8;
        value           nonuniform List<scalar> 
20
(
0
0
0
1.94592e-07
3.88178e-07
5.24746e-07
6.33936e-07
7.20876e-07
7.9455e-07
8.54503e-07
9.07921e-07
9.55769e-07
1.00383e-06
1.05316e-06
1.11807e-06
1.17811e-06
1.24874e-06
1.34575e-06
1.65468e-06
1.23598e-06
)
;
    }
    movingWallBottom
    {
        type            nutkWallFunction;
        Cmu             0.09;
        kappa           0.41;
        E               9.8;
        value           nonuniform List<scalar> 
20
(
0
0
0
1.94919e-07
3.90717e-07
5.29164e-07
6.40129e-07
7.28227e-07
8.03044e-07
8.63466e-07
9.17582e-07
9.65381e-07
1.01369e-06
1.06249e-06
1.12707e-06
1.18675e-06
1.25677e-06
1.35324e-06
1.66072e-06
1.24046e-06
)
;
    }
    fixedWalls
    {
        type            nutkWallFunction;
        Cmu             0.09;
        kappa           0.41;
        E               9.8;
        value           nonuniform List<scalar> 
40
(
0
0
0
0
0
0
0
0
0
0
0
0
0
0
0
0
0
0
0
0
1.24046e-06
3.87414e-07
0
0
0
0
0
0
0
0
0
0
0
0
0
0
0
0
3.83718e-07
1.23598e-06
)
;
    }
    frontAndBack
    {
        type            empty;
    }
}


// ************************************************************************* //
