/*--------------------------------*- C++ -*----------------------------------*\
| =========                 |                                                 |
| \\      /  F ield         | OpenFOAM: The Open Source CFD Toolbox           |
|  \\    /   O peration     | Version:  4.1                                   |
|   \\  /    A nd           | Web:      www.OpenFOAM.org                      |
|    \\/     M anipulation  |                                                 |
\*---------------------------------------------------------------------------*/
FoamFile
{
    version     2.0;
    format      ascii;
    class       volScalarField;
    location    "8";
    object      p;
}
// * * * * * * * * * * * * * * * * * * * * * * * * * * * * * * * * * * * * * //

dimensions      [0 2 -2 0 0 0 0];

internalField   nonuniform List<scalar> 
400
(
3.88877e-08
0.00039156
-0.00358525
-0.00742016
-0.0107299
-0.0135541
-0.0159353
-0.0178796
-0.0194065
-0.0205523
-0.0213584
-0.0218285
-0.0219155
-0.0214962
-0.0203614
-0.0180963
-0.0133401
-0.00495574
0.00812054
0.0286789
-0.00602162
-0.00553903
-0.00726795
-0.00976281
-0.0124764
-0.0150072
-0.0171718
-0.0189252
-0.0202939
-0.0213281
-0.0220735
-0.0225408
-0.0227034
-0.0224515
-0.0215387
-0.0196047
-0.0163288
-0.0107001
-0.0025637
0.0162638
-0.00678787
-0.00723768
-0.00892314
-0.0112506
-0.0137283
-0.0159892
-0.0178827
-0.0194036
-0.0206017
-0.0215234
-0.0222017
-0.0226305
-0.0227954
-0.022596
-0.0220155
-0.020664
-0.0185101
-0.0148019
-0.0109933
-5.44176e-05
-0.0081105
-0.00900751
-0.0107547
-0.0130213
-0.0152749
-0.0172467
-0.0188593
-0.020139
-0.0211419
-0.0219141
-0.0224846
-0.0228591
-0.0230245
-0.0229131
-0.0224648
-0.0214859
-0.0200468
-0.0172415
-0.0158509
-0.00948942
-0.00854036
-0.00982212
-0.0116675
-0.0139262
-0.0160908
-0.0179433
-0.019431
-0.0205863
-0.0214718
-0.022143
-0.0226355
-0.0229611
-0.0231062
-0.0230194
-0.02264
-0.0218578
-0.0207997
-0.0182178
-0.0172956
-0.0123593
-0.00776405
-0.00947662
-0.0115345
-0.0139347
-0.0161856
-0.0180859
-0.0195928
-0.0207405
-0.0215948
-0.0222183
-0.0226568
-0.0229275
-0.0230187
-0.0228815
-0.0224505
-0.021648
-0.0204245
-0.0179233
-0.015768
-0.0109324
-0.00583917
-0.00786855
-0.0102588
-0.0129512
-0.0154855
-0.0176163
-0.0192868
-0.0205351
-0.0214382
-0.0220632
-0.0224628
-0.0226637
-0.0226525
-0.0223761
-0.0217807
-0.0207225
-0.0188866
-0.0157571
-0.0118772
-0.00674055
-0.00301371
-0.00536744
-0.00810805
-0.0111777
-0.0141146
-0.0165992
-0.0185432
-0.0199742
-0.0209765
-0.0216274
-0.0219899
-0.0220933
-0.0219272
-0.0214495
-0.0205458
-0.0189152
-0.0160524
-0.0115658
-0.00581939
-0.000525456
-9.88303e-05
-0.00261714
-0.00561151
-0.00900499
-0.0123249
-0.0151953
-0.0174731
-0.0191456
-0.0202928
-0.0210061
-0.0213537
-0.0213647
-0.0210422
-0.020311
-0.0189189
-0.0163972
-0.0121678
-0.00593821
0.00182694
0.00625618
0.00181289
-0.000781431
-0.00390901
-0.00752419
-0.0110916
-0.0141624
-0.0166139
-0.0184446
-0.0197208
-0.0205098
-0.0208625
-0.0208051
-0.0203478
-0.0193625
-0.0174959
-0.014142
-0.00869748
-0.00112475
0.00715703
0.0112035
0.00176636
-0.00082056
-0.00394369
-0.0075596
-0.0111334
-0.0142078
-0.0166617
-0.0184941
-0.0197698
-0.0205584
-0.0209134
-0.0208637
-0.0204087
-0.0194255
-0.0175736
-0.0142474
-0.00884497
-0.00132422
0.00691625
0.0109714
-0.00019877
-0.00269866
-0.00568088
-0.00907456
-0.0124038
-0.0152862
-0.017579
-0.0192649
-0.020423
-0.0211413
-0.0214882
-0.0214965
-0.0211712
-0.020443
-0.0190699
-0.0165924
-0.012439
-0.00631832
0.00131032
0.0057618
-0.0031161
-0.00544512
-0.00817144
-0.0112427
-0.0141941
-0.0167014
-0.0186686
-0.0201174
-0.0211329
-0.0217897
-0.0221514
-0.0222501
-0.0220774
-0.0215932
-0.02069
-0.0190834
-0.0162818
-0.011893
-0.00629042
-0.00103479
-0.00591232
-0.00792098
-0.0103022
-0.0130037
-0.0155599
-0.0177177
-0.0194136
-0.0206806
-0.0215947
-0.022223
-0.0226193
-0.0228108
-0.0227864
-0.0224989
-0.0218951
-0.0208416
-0.0190408
-0.0159681
-0.012201
-0.00713592
-0.00779885
-0.0094945
-0.0115502
-0.013966
-0.0162436
-0.0181743
-0.0197087
-0.020877
-0.0217429
-0.022369
-0.0228028
-0.0230622
-0.0231379
-0.0229845
-0.0225387
-0.0217266
-0.0205128
-0.0180243
-0.0159589
-0.0111806
-0.00853836
-0.00980735
-0.0116551
-0.0139302
-0.0161239
-0.0180098
-0.0195281
-0.0207066
-0.0216055
-0.0222804
-0.0227685
-0.0230825
-0.0232116
-0.0231054
-0.0227066
-0.0219078
-0.0208352
-0.0182507
-0.0173922
-0.0124688
-0.0080825
-0.00896862
-0.0107166
-0.0129992
-0.015282
-0.0172883
-0.0189334
-0.0202381
-0.0212567
-0.0220351
-0.0226032
-0.0229677
-0.0231174
-0.0229839
-0.0225127
-0.0215091
-0.0200472
-0.0172349
-0.0158543
-0.00950578
-0.00675025
-0.00718555
-0.00886975
-0.0112097
-0.0137121
-0.0160053
-0.0179314
-0.0194795
-0.0206962
-0.0216269
-0.0223052
-0.0227253
-0.0228745
-0.0226535
-0.0220492
-0.0206685
-0.0184871
-0.014762
-0.0109384
-1.33476e-06
-0.00598998
-0.0054885
-0.00720609
-0.00970642
-0.0124394
-0.0149994
-0.0171969
-0.0189804
-0.0203723
-0.02142
-0.0221691
-0.0226307
-0.0227795
-0.0225059
-0.0215623
-0.0195948
-0.016286
-0.0106303
-0.00246665
0.0163638
1.8538e-05
0.000425712
-0.00353142
-0.00736612
-0.0106925
-0.0135446
-0.015958
-0.0179327
-0.0194829
-0.0206424
-0.0214515
-0.0219148
-0.0219859
-0.0215434
-0.0203783
-0.0180785
-0.0132834
-0.00486531
0.00823796
0.0288082
)
;

boundaryField
{
    movingWall
    {
        type            zeroGradient;
    }
    movingWallBottom
    {
        type            zeroGradient;
    }
    fixedWalls
    {
        type            zeroGradient;
    }
    frontAndBack
    {
        type            empty;
    }
}


// ************************************************************************* //
