/*--------------------------------*- C++ -*----------------------------------*\
| =========                 |                                                 |
| \\      /  F ield         | OpenFOAM: The Open Source CFD Toolbox           |
|  \\    /   O peration     | Version:  4.1                                   |
|   \\  /    A nd           | Web:      www.OpenFOAM.org                      |
|    \\/     M anipulation  |                                                 |
\*---------------------------------------------------------------------------*/
FoamFile
{
    version     2.0;
    format      ascii;
    class       surfaceScalarField;
    location    "8";
    object      phi;
}
// * * * * * * * * * * * * * * * * * * * * * * * * * * * * * * * * * * * * * //

dimensions      [0 3 -1 0 0 0 0];

internalField   nonuniform List<scalar> 
760
(
3.20808e-06
-3.20808e-06
5.41276e-06
-2.20468e-06
7.11459e-06
-1.70184e-06
8.54567e-06
-1.43108e-06
9.74398e-06
-1.19831e-06
1.07291e-05
-9.85121e-07
1.15313e-05
-8.02217e-07
1.2189e-05
-6.57667e-07
1.27341e-05
-5.45062e-07
1.31893e-05
-4.55214e-07
1.35664e-05
-3.77169e-07
1.38666e-05
-3.00168e-07
1.40874e-05
-2.20843e-07
1.41943e-05
-1.06863e-07
1.41884e-05
5.87989e-09
1.38404e-05
3.48044e-07
1.3113e-05
7.27421e-07
1.12221e-05
1.89086e-06
7.72428e-06
3.49782e-06
7.72428e-06
1.01214e-06
-4.22023e-06
2.50255e-06
-3.69509e-06
3.88893e-06
-3.08821e-06
4.98473e-06
-2.52688e-06
5.80909e-06
-2.02267e-06
6.42016e-06
-1.59619e-06
6.87039e-06
-1.25245e-06
7.19774e-06
-9.85015e-07
7.43479e-06
-7.82113e-07
7.60192e-06
-6.22344e-07
7.71872e-06
-4.93968e-07
7.78722e-06
-3.68662e-07
7.80837e-06
-2.41993e-07
7.71738e-06
-1.5878e-08
7.53053e-06
1.92728e-07
7.18171e-06
6.96867e-07
6.52399e-06
1.38514e-06
5.34369e-06
3.07116e-06
2.92794e-06
5.91357e-06
1.06522e-05
9.33906e-07
-5.15413e-06
2.07472e-06
-4.8359e-06
3.02737e-06
-4.04087e-06
3.73852e-06
-3.23803e-06
4.23886e-06
-2.52301e-06
4.57178e-06
-1.92911e-06
4.77736e-06
-1.45803e-06
4.89073e-06
-1.09839e-06
4.93783e-06
-8.29217e-07
4.93941e-06
-6.23925e-07
4.90266e-06
-4.57218e-07
4.83302e-06
-2.99017e-07
4.71553e-06
-1.245e-07
4.57383e-06
1.2582e-07
4.29392e-06
4.72631e-07
3.90596e-06
1.08483e-06
3.23778e-06
2.05333e-06
2.39962e-06
3.90931e-06
1.08782e-06
7.22537e-06
1.174e-05
6.94537e-07
-5.84867e-06
1.34731e-06
-5.48867e-06
1.91706e-06
-4.61061e-06
2.35367e-06
-3.67465e-06
2.65405e-06
-2.82338e-06
2.841e-06
-2.11606e-06
2.94402e-06
-1.56105e-06
2.98785e-06
-1.14222e-06
2.98973e-06
-8.31103e-07
2.96119e-06
-5.95377e-07
2.9063e-06
-4.02337e-07
2.82451e-06
-2.17221e-07
2.70603e-06
-6.01802e-09
2.54496e-06
2.86886e-07
2.31211e-06
7.05477e-07
2.00988e-06
1.38707e-06
1.54092e-06
2.52228e-06
1.00671e-06
4.44353e-06
4.00713e-07
7.83137e-06
1.21408e-05
3.34079e-07
-6.18275e-06
5.2405e-07
-5.67864e-06
7.17079e-07
-4.80364e-06
8.82199e-07
-3.83977e-06
9.97708e-07
-2.93889e-06
1.06706e-06
-2.18541e-06
1.101e-06
-1.59499e-06
1.10968e-06
-1.1509e-06
1.09997e-06
-8.21391e-07
1.07583e-06
-5.71245e-07
1.03762e-06
-3.64119e-07
9.82984e-07
-1.62589e-07
9.05345e-07
7.16213e-08
8.00468e-07
3.91763e-07
6.57159e-07
8.48786e-07
4.75803e-07
1.56843e-06
3.03615e-07
2.69447e-06
-1.01769e-07
4.84891e-06
-1.92101e-07
7.9217e-06
1.19487e-05
-2.24203e-07
-5.95855e-06
-4.26267e-07
-5.47658e-06
-5.69207e-07
-4.6607e-06
-6.70461e-07
-3.73852e-06
-7.48505e-07
-2.86085e-06
-8.07386e-07
-2.12653e-06
-8.49633e-07
-1.55275e-06
-8.78362e-07
-1.12217e-06
-8.97831e-07
-8.01922e-07
-9.11599e-07
-5.57477e-07
-9.23992e-07
-3.51726e-07
-9.39413e-07
-1.47167e-07
-9.62284e-07
9.44924e-08
-9.90014e-07
4.19493e-07
-1.02156e-06
8.80331e-07
-1.04463e-06
1.5915e-06
-1.06646e-06
2.7163e-06
-9.98208e-07
4.78066e-06
-8.78068e-07
7.80156e-06
1.10706e-05
-7.24035e-07
-5.23451e-06
-1.41349e-06
-4.78712e-06
-1.93436e-06
-4.13984e-06
-2.33031e-06
-3.34257e-06
-2.61819e-06
-2.57296e-06
-2.81981e-06
-1.92491e-06
-2.95619e-06
-1.41637e-06
-3.04339e-06
-1.03496e-06
-3.0952e-06
-7.50121e-07
-3.12101e-06
-5.31668e-07
-3.12855e-06
-3.44185e-07
-3.12457e-06
-1.51142e-07
-3.11284e-06
8.276e-08
-3.07884e-06
3.85491e-07
-3.01911e-06
8.20608e-07
-2.91744e-06
1.48982e-06
-2.76929e-06
2.56815e-06
-2.3999e-06
4.41126e-06
-1.75952e-06
7.16118e-06
9.31107e-06
-1.30014e-06
-3.93437e-06
-2.47323e-06
-3.61403e-06
-3.41775e-06
-3.19532e-06
-4.14739e-06
-2.61293e-06
-4.6864e-06
-2.03394e-06
-5.07119e-06
-1.54012e-06
-5.343e-06
-1.14456e-06
-5.53444e-06
-8.43517e-07
-5.66902e-06
-6.15545e-07
-5.7635e-06
-4.37188e-07
-5.82914e-06
-2.78545e-07
-5.87367e-06
-1.06611e-07
-5.88833e-06
9.74243e-08
-5.84947e-06
3.46628e-07
-5.72878e-06
6.99916e-07
-5.48256e-06
1.2436e-06
-5.03906e-06
2.12466e-06
-4.17245e-06
3.54465e-06
-2.49513e-06
5.48386e-06
6.81594e-06
-1.8197e-06
-2.11467e-06
-3.49349e-06
-1.94025e-06
-4.94535e-06
-1.74346e-06
-6.12171e-06
-1.43657e-06
-7.02507e-06
-1.13058e-06
-7.69507e-06
-8.70123e-07
-8.18305e-06
-6.56586e-07
-8.54192e-06
-4.84643e-07
-8.80972e-06
-3.47746e-07
-9.00847e-06
-2.38434e-07
-9.14708e-06
-1.3994e-07
-9.2209e-06
-3.27891e-08
-9.20529e-06
8.18103e-08
-9.07546e-06
2.168e-07
-8.78194e-06
4.064e-07
-8.23507e-06
6.96725e-07
-7.28708e-06
1.17667e-06
-5.69242e-06
1.94999e-06
-3.28432e-06
3.07576e-06
3.53162e-06
-2.16311e-06
4.84403e-08
-4.15054e-06
4.71839e-08
-5.94613e-06
5.21266e-08
-7.43993e-06
5.72289e-08
-8.62896e-06
5.84545e-08
-9.55702e-06
5.79379e-08
-1.02652e-05
5.15746e-08
-1.07939e-05
4.4064e-08
-1.11756e-05
3.39294e-08
-1.14377e-05
2.36656e-08
-1.15912e-05
1.35987e-08
-1.16264e-05
2.3866e-09
-1.15373e-05
-7.25542e-09
-1.13044e-05
-1.61449e-08
-1.08713e-05
-2.66433e-08
-1.01358e-05
-3.87859e-08
-8.90308e-06
-5.60598e-08
-6.87228e-06
-8.08185e-08
-3.68163e-06
-1.14881e-07
-1.50013e-07
-2.14828e-06
2.19672e-06
-4.12394e-06
2.02284e-06
-5.90776e-06
1.83594e-06
-7.39097e-06
1.54044e-06
-8.56957e-06
1.23705e-06
-9.48432e-06
9.7269e-07
-1.01819e-05
7.49195e-07
-1.07027e-05
5.64825e-07
-1.10797e-05
4.10981e-07
-1.13398e-05
2.8375e-07
-1.14924e-05
1.66125e-07
-1.15278e-05
3.78513e-08
-1.1441e-05
-9.41099e-08
-1.12109e-05
-2.46243e-07
-1.0783e-05
-4.54493e-07
-1.00548e-05
-7.67023e-07
-8.83263e-06
-1.27822e-06
-6.81604e-06
-2.09741e-06
-3.64733e-06
-3.28359e-06
-3.79734e-06
-1.79476e-06
3.99148e-06
-3.44865e-06
3.67673e-06
-4.88234e-06
3.26964e-06
-6.04123e-06
2.69933e-06
-6.92822e-06
2.12404e-06
-7.57914e-06
1.62361e-06
-8.04687e-06
1.21692e-06
-8.38372e-06
9.0168e-07
-8.63029e-06
6.57547e-07
-8.81067e-06
4.64129e-07
-8.93556e-06
2.91015e-07
-9.00387e-06
1.06169e-07
-8.9895e-06
-1.08487e-07
-8.86518e-06
-3.70562e-07
-8.58376e-06
-7.35912e-07
-8.05639e-06
-1.29439e-06
-7.13839e-06
-2.19623e-06
-5.58365e-06
-3.65214e-06
-3.22367e-06
-5.64357e-06
-7.02101e-06
-1.27741e-06
5.2689e-06
-2.43542e-06
4.83473e-06
-3.36803e-06
4.20225e-06
-4.08501e-06
3.41632e-06
-4.60924e-06
2.64827e-06
-4.97803e-06
1.99241e-06
-5.23251e-06
1.4714e-06
-5.406e-06
1.07517e-06
-5.52349e-06
7.75033e-07
-5.60175e-06
5.42391e-07
-5.65273e-06
3.41997e-07
-5.68534e-06
1.38777e-07
-5.69164e-06
-1.02183e-07
-5.64938e-06
-4.12829e-07
-5.53167e-06
-8.53614e-07
-5.29712e-06
-1.52894e-06
-4.8793e-06
-2.61405e-06
-4.0581e-06
-4.47333e-06
-2.44196e-06
-7.25971e-06
-9.46298e-06
-7.06657e-07
5.97555e-06
-1.38326e-06
5.51133e-06
-1.893e-06
4.71199e-06
-2.2775e-06
3.80082e-06
-2.55315e-06
2.92392e-06
-2.74291e-06
2.18217e-06
-2.8681e-06
1.59659e-06
-2.94517e-06
1.15223e-06
-2.98845e-06
8.18317e-07
-3.00733e-06
5.61273e-07
-3.00967e-06
3.44331e-07
-3.00197e-06
1.31076e-07
-2.98651e-06
-1.17637e-07
-2.95146e-06
-4.47881e-07
-2.89187e-06
-9.13205e-07
-2.79239e-06
-1.62842e-06
-2.65093e-06
-2.75551e-06
-2.2973e-06
-4.82697e-06
-1.7046e-06
-7.85241e-06
-1.11676e-05
-2.10033e-07
6.18559e-06
-4.00861e-07
5.70216e-06
-5.33831e-07
4.84496e-06
-6.2379e-07
3.89078e-06
-6.90957e-07
2.99109e-06
-7.40428e-07
2.23164e-06
-7.74946e-07
1.63111e-06
-7.9777e-07
1.17506e-06
-8.13135e-07
8.33682e-07
-8.24507e-07
5.72644e-07
-8.36172e-07
3.55996e-07
-8.52e-07
1.46904e-07
-8.76166e-07
-9.34707e-08
-9.06403e-07
-4.17645e-07
-9.41801e-07
-8.77807e-07
-9.70618e-07
-1.5996e-06
-9.95232e-07
-2.73089e-06
-9.41664e-07
-4.88053e-06
-8.43098e-07
-7.95097e-06
-1.20107e-05
3.44549e-07
5.84104e-06
5.44816e-07
5.50189e-06
7.48512e-07
4.64127e-06
9.24435e-07
3.71486e-06
1.05018e-06
2.86534e-06
1.1282e-06
2.15362e-06
1.1687e-06
1.59062e-06
1.18166e-06
1.1621e-06
1.1741e-06
8.41235e-07
1.15023e-06
5.96518e-07
1.11051e-06
3.95715e-07
1.05328e-06
2.04132e-07
9.71873e-07
-1.20623e-08
8.62814e-07
-3.08586e-07
7.14852e-07
-7.29846e-07
5.29004e-07
-1.41375e-06
3.45209e-07
-2.5471e-06
-7.35176e-08
-4.46181e-06
-1.59009e-07
-7.86548e-06
-1.21697e-05
6.99832e-07
5.14121e-06
1.36246e-06
4.83926e-06
1.94255e-06
4.06118e-06
2.39117e-06
3.26625e-06
2.70305e-06
2.55345e-06
2.89942e-06
1.95725e-06
3.00915e-06
1.48088e-06
3.0569e-06
1.11435e-06
3.06008e-06
8.38049e-07
3.03061e-06
6.25987e-07
2.97288e-06
4.53445e-07
2.88693e-06
2.90091e-07
2.76255e-06
1.12313e-07
2.59601e-06
-1.42048e-07
2.35615e-06
-4.89983e-07
2.04602e-06
-1.10363e-06
1.56909e-06
-2.07016e-06
1.03429e-06
-3.92702e-06
4.11675e-07
-7.24286e-06
-1.1758e-05
9.33416e-07
4.20779e-06
2.08057e-06
3.69211e-06
3.04436e-06
3.09738e-06
3.76787e-06
2.54274e-06
4.28032e-06
2.041e-06
4.62391e-06
1.61366e-06
4.83754e-06
1.26726e-06
4.95597e-06
9.95926e-07
5.00494e-06
7.89079e-07
5.00564e-06
6.25286e-07
4.96543e-06
4.93657e-07
4.89057e-06
3.6495e-07
4.76684e-06
2.36036e-07
4.61904e-06
5.75139e-09
4.32999e-06
-2.00929e-07
3.93438e-06
-7.08017e-07
3.25922e-06
-1.395e-06
2.41483e-06
-3.08262e-06
1.09518e-06
-5.92322e-06
-1.06628e-05
1.00601e-06
3.20178e-06
2.49742e-06
2.2007e-06
3.89135e-06
1.70345e-06
4.99743e-06
1.43666e-06
5.83311e-06
1.20532e-06
6.45468e-06
9.92086e-07
6.91345e-06
8.0849e-07
7.24695e-06
6.62423e-07
7.48746e-06
5.48577e-07
7.65571e-06
4.57031e-07
7.77126e-06
3.78106e-07
7.83682e-06
2.99389e-07
7.85315e-06
2.19711e-07
7.75472e-06
1.04175e-07
7.56183e-06
-8.0371e-09
7.20662e-06
-3.52807e-07
6.54263e-06
-7.31014e-07
5.35598e-06
-1.89596e-06
2.93474e-06
-3.50198e-06
-7.7281e-06
3.20178e-06
5.40248e-06
7.10593e-06
8.54259e-06
9.74791e-06
1.074e-05
1.15485e-05
1.22109e-05
1.27595e-05
1.32165e-05
1.35946e-05
1.3894e-05
1.41137e-05
1.42179e-05
1.42099e-05
1.38571e-05
1.3126e-05
1.12301e-05
7.7281e-06
)
;

boundaryField
{
    movingWall
    {
        type            calculated;
        value           uniform 0;
    }
    movingWallBottom
    {
        type            calculated;
        value           uniform 0;
    }
    fixedWalls
    {
        type            calculated;
        value           uniform 0;
    }
    frontAndBack
    {
        type            empty;
        value           nonuniform 0();
    }
}


// ************************************************************************* //
