/*--------------------------------*- C++ -*----------------------------------*\
| =========                 |                                                 |
| \\      /  F ield         | OpenFOAM: The Open Source CFD Toolbox           |
|  \\    /   O peration     | Version:  4.1                                   |
|   \\  /    A nd           | Web:      www.OpenFOAM.org                      |
|    \\/     M anipulation  |                                                 |
\*---------------------------------------------------------------------------*/
FoamFile
{
    version     2.0;
    format      ascii;
    class       volVectorField;
    location    "8";
    object      U;
}
// * * * * * * * * * * * * * * * * * * * * * * * * * * * * * * * * * * * * * //

dimensions      [0 1 -1 0 0 0 0];

internalField   nonuniform List<vector> 
400
(
(0.0636158 -0.0988378 0)
(0.0773876 -0.0639343 0)
(0.123412 -0.0434869 0)
(0.15789 -0.0339422 0)
(0.184368 -0.0280361 0)
(0.205876 -0.0236075 0)
(0.223357 -0.0199852 0)
(0.238126 -0.0170845 0)
(0.249863 -0.0146362 0)
(0.259983 -0.012688 0)
(0.267633 -0.0108612 0)
(0.27448 -0.00937198 0)
(0.278822 -0.00763094 0)
(0.282448 -0.00608805 0)
(0.282663 -0.00366822 0)
(0.279407 -0.000506784 0)
(0.269007 0.00137043 0)
(0.250253 0.0117008 0)
(0.188715 0.022512 0)
(0.172506 0.11743 0)
(0.0154796 -0.0512768 0)
(0.0308487 -0.0419444 0)
(0.0637765 -0.0367339 0)
(0.0884397 -0.0315633 0)
(0.107986 -0.0261959 0)
(0.122789 -0.0211182 0)
(0.133586 -0.0167369 0)
(0.141487 -0.0132591 0)
(0.146889 -0.010684 0)
(0.150917 -0.008623 0)
(0.153259 -0.00700967 0)
(0.155264 -0.00518046 0)
(0.155382 -0.00353791 0)
(0.155436 -1.95742e-06 0)
(0.151166 0.00303811 0)
(0.147985 0.0113836 0)
(0.133601 0.0213933 0)
(0.126451 0.0501205 0)
(0.0650789 0.093924 0)
(0.0899339 0.164399 0)
(0.0109884 -0.100747 0)
(0.0291842 -0.0928838 0)
(0.0509415 -0.0785451 0)
(0.0675094 -0.064486 0)
(0.0799854 -0.0510894 0)
(0.0887053 -0.0395316 0)
(0.0941445 -0.0303086 0)
(0.0972264 -0.0232732 0)
(0.0986502 -0.0180013 0)
(0.0990343 -0.0139598 0)
(0.0985133 -0.0106938 0)
(0.0975226 -0.00769515 0)
(0.0953067 -0.00447985 0)
(0.0932199 -0.000100761 0)
(0.0877947 0.00599806 0)
(0.0837337 0.0174813 0)
(0.0685273 0.0349592 0)
(0.0674635 0.072398 0)
(0.0126719 0.135541 0)
(0.0496845 0.222545 0)
(0.0070222 -0.113298 0)
(0.0203871 -0.106175 0)
(0.0317441 -0.0883903 0)
(0.0425249 -0.0698826 0)
(0.0503834 -0.053788 0)
(0.0554467 -0.0406488 0)
(0.0583147 -0.0303065 0)
(0.0596699 -0.0224409 0)
(0.0600156 -0.0165577 0)
(0.0596781 -0.0120866 0)
(0.0587898 -0.00844693 0)
(0.0574141 -0.00499711 0)
(0.0553212 -0.00109923 0)
(0.052684 0.0043907 0)
(0.0483304 0.0120653 0)
(0.0444461 0.02495 0)
(0.0323442 0.0463254 0)
(0.0367583 0.0854211 0)
(-0.00683213 0.15469 0)
(0.0320658 0.250345 0)
(0.00264558 -0.123188 0)
(0.00885693 -0.114857 0)
(0.0113704 -0.0967407 0)
(0.0156237 -0.0772141 0)
(0.0188342 -0.059067 0)
(0.0208781 -0.0439405 0)
(0.0219376 -0.0321359 0)
(0.022322 -0.0232526 0)
(0.0222476 -0.0166649 0)
(0.0218645 -0.0116939 0)
(0.021205 -0.00763326 0)
(0.0202558 -0.00371515 0)
(0.0188947 0.000823553 0)
(0.0171048 0.00697319 0)
(0.0145047 0.0158085 0)
(0.012255 0.0299303 0)
(0.00403726 0.0527217 0)
(0.0121205 0.093777 0)
(-0.0194886 0.162263 0)
(0.0174968 0.251198 0)
(-0.00537394 -0.123706 0)
(-0.00589535 -0.113002 0)
(-0.0112114 -0.095926 0)
(-0.0130849 -0.0768392 0)
(-0.0144729 -0.0588082 0)
(-0.0156237 -0.0437042 0)
(-0.0165312 -0.031871 0)
(-0.0172234 -0.0230033 0)
(-0.0177054 -0.0164186 0)
(-0.0180606 -0.0113869 0)
(-0.0183492 -0.00717934 0)
(-0.0186513 -0.00303892 0)
(-0.0190936 0.0017989 0)
(-0.0196431 0.00829728 0)
(-0.0202862 0.0176755 0)
(-0.020846 0.0321368 0)
(-0.0238684 0.0547757 0)
(-0.0140707 0.0961567 0)
(-0.0326632 0.159424 0)
(0.00817732 0.237825 0)
(-0.011624 -0.111726 0)
(-0.0216386 -0.103729 0)
(-0.0352682 -0.089103 0)
(-0.0440741 -0.0717508 0)
(-0.0502153 -0.0551014 0)
(-0.0547406 -0.0411118 0)
(-0.0578848 -0.0301406 0)
(-0.0600657 -0.0218828 0)
(-0.0614239 -0.0157579 0)
(-0.0621932 -0.0110896 0)
(-0.0625518 -0.00710542 0)
(-0.0626471 -0.0030804 0)
(-0.0625638 0.00174794 0)
(-0.0622144 0.00823469 0)
(-0.0617133 0.0170863 0)
(-0.0608487 0.0305531 0)
(-0.0588812 0.0528254 0)
(-0.0485526 0.0935975 0)
(-0.0504475 0.154381 0)
(-0.00668062 0.210886 0)
(-0.0197687 -0.0911475 0)
(-0.0382436 -0.0842371 0)
(-0.0610476 -0.0739021 0)
(-0.0779072 -0.060118 0)
(-0.0895748 -0.0467087 0)
(-0.0983136 -0.0352336 0)
(-0.104389 -0.0260954 0)
(-0.108935 -0.019202 0)
(-0.112086 -0.0139581 0)
(-0.114379 -0.00984963 0)
(-0.116022 -0.00627943 0)
(-0.117211 -0.00255867 0)
(-0.118007 0.00198834 0)
(-0.118316 0.00794258 0)
(-0.117814 0.0165871 0)
(-0.114975 0.0300731 0)
(-0.107534 0.0516626 0)
(-0.0909269 0.087169 0)
(-0.0675256 0.13605 0)
(-0.0193779 0.170951 0)
(-0.0262331 -0.0591293 0)
(-0.0535741 -0.0551119 0)
(-0.0866458 -0.049075 0)
(-0.113887 -0.039918 0)
(-0.13329 -0.03088 0)
(-0.148621 -0.0235442 0)
(-0.159267 -0.0176857 0)
(-0.167541 -0.0130659 0)
(-0.173529 -0.00944966 0)
(-0.178376 -0.00656414 0)
(-0.181743 -0.00391143 0)
(-0.18413 -0.00100576 0)
(-0.185431 0.00262248 0)
(-0.185168 0.00725119 0)
(-0.182111 0.0136814 0)
(-0.174357 0.0235794 0)
(-0.158087 0.0396411 0)
(-0.12903 0.0647792 0)
(-0.0804663 0.0980045 0)
(-0.0456138 0.113442 0)
(-0.0308665 -0.0203235 0)
(-0.063179 -0.0186899 0)
(-0.103116 -0.0169132 0)
(-0.1381 -0.0141679 0)
(-0.162744 -0.011487 0)
(-0.183437 -0.00869469 0)
(-0.198871 -0.00626938 0)
(-0.211146 -0.00437874 0)
(-0.219972 -0.00292958 0)
(-0.226533 -0.0017842 0)
(-0.230679 -0.000773135 0)
(-0.232876 0.000202898 0)
(-0.233482 0.00154156 0)
(-0.231675 0.00314016 0)
(-0.226389 0.0055152 0)
(-0.214303 0.00918138 0)
(-0.191616 0.0152594 0)
(-0.153931 0.0246515 0)
(-0.0993495 0.0366173 0)
(-0.0497288 0.0406473 0)
(-0.0306423 0.0220951 0)
(-0.0627692 0.0204535 0)
(-0.102448 0.0188684 0)
(-0.137223 0.0163096 0)
(-0.161715 0.0136509 0)
(-0.182079 0.0108405 0)
(-0.197314 0.00818458 0)
(-0.20939 0.00602034 0)
(-0.218066 0.00420706 0)
(-0.224588 0.00267704 0)
(-0.228693 0.00126419 0)
(-0.23102 -0.00014822 0)
(-0.231481 -0.00191216 0)
(-0.229788 -0.0039095 0)
(-0.224517 -0.00677034 0)
(-0.212618 -0.0110104 0)
(-0.190115 -0.0178987 0)
(-0.152747 -0.0284206 0)
(-0.0984654 -0.041823 0)
(-0.0486874 -0.0473472 0)
(-0.0258805 0.0605249 0)
(-0.0528446 0.0565751 0)
(-0.0855464 0.0507446 0)
(-0.112481 0.0418523 0)
(-0.131517 0.0329135 0)
(-0.146518 0.0254327 0)
(-0.156758 0.0193675 0)
(-0.164613 0.0144904 0)
(-0.17016 0.0105348 0)
(-0.174578 0.00731906 0)
(-0.17761 0.00433858 0)
(-0.179785 0.00111073 0)
(-0.181027 -0.00280034 0)
(-0.180809 -0.00775893 0)
(-0.177934 -0.014496 0)
(-0.170505 -0.0247688 0)
(-0.154767 -0.0413494 0)
(-0.126462 -0.0673027 0)
(-0.0792196 -0.101645 0)
(-0.0438521 -0.117839 0)
(-0.0194216 0.0920739 0)
(-0.0375826 0.0853302 0)
(-0.0601675 0.075251 0)
(-0.0768197 0.0616864 0)
(-0.0881955 0.0483149 0)
(-0.0966437 0.0367107 0)
(-0.102361 0.0273451 0)
(-0.106541 0.0201623 0)
(-0.109356 0.014627 0)
(-0.111291 0.0102418 0)
(-0.112628 0.00639924 0)
(-0.113537 0.00245885 0)
(-0.114128 -0.00226999 0)
(-0.114265 -0.0083648 0)
(-0.113711 -0.0171026 0)
(-0.111049 -0.0307186 0)
(-0.104 -0.0525301 0)
(-0.0880434 -0.0885761 0)
(-0.0664039 -0.138419 0)
(-0.0183636 -0.174487 0)
(-0.0113639 0.112274 0)
(-0.0211161 0.104572 0)
(-0.0345505 0.0902552 0)
(-0.0431607 0.073111 0)
(-0.0490532 0.0564761 0)
(-0.0533318 0.0423303 0)
(-0.0562356 0.0311146 0)
(-0.058195 0.0225696 0)
(-0.0593649 0.0161502 0)
(-0.0599803 0.0112092 0)
(-0.0602165 0.00698426 0)
(-0.0602169 0.00276748 0)
(-0.0600639 -0.00220879 0)
(-0.0596538 -0.0088126 0)
(-0.0591132 -0.0177747 0)
(-0.0582458 -0.0312993 0)
(-0.0564637 -0.0535236 0)
(-0.0461421 -0.094293 0)
(-0.0491237 -0.155309 0)
(-0.00601063 -0.213042 0)
(-0.00513336 0.123927 0)
(-0.00547492 0.113595 0)
(-0.0106011 0.0968483 0)
(-0.0122713 0.0779732 0)
(-0.0134384 0.0599621 0)
(-0.014381 0.0447231 0)
(-0.0151099 0.0326656 0)
(-0.0156633 0.0235337 0)
(-0.0160413 0.01669 0)
(-0.0163333 0.0114246 0)
(-0.0165902 0.00701064 0)
(-0.0168887 0.00270529 0)
(-0.0173484 -0.00225546 0)
(-0.0179323 -0.00885053 0)
(-0.0186348 -0.018303 0)
(-0.0192395 -0.0328589 0)
(-0.0224712 -0.0556326 0)
(-0.0126272 -0.0970514 0)
(-0.0318089 -0.16035 0)
(0.00851705 -0.239359 0)
(0.00277398 0.123176 0)
(0.0091635 0.115257 0)
(0.0118806 0.0974927 0)
(0.0163394 0.0781586 0)
(0.0197686 0.0600354 0)
(0.0220131 0.0447943 0)
(0.0232332 0.0327997 0)
(0.0237288 0.0236965 0)
(0.0237217 0.0168896 0)
(0.0233609 0.0117156 0)
(0.0226875 0.0074791 0)
(0.0216976 0.00341886 0)
(0.0202678 -0.00122369 0)
(0.0184041 -0.00745688 0)
(0.0157068 -0.01635 0)
(0.0133613 -0.0305052 0)
(0.00496247 -0.0532977 0)
(0.0131387 -0.0942216 0)
(-0.0189254 -0.162763 0)
(0.0177719 -0.252093 0)
(0.0071608 0.113057 0)
(0.0206048 0.106329 0)
(0.0321331 0.0889165 0)
(0.0431274 0.0705814 0)
(0.051234 0.0545144 0)
(0.0565197 0.041306 0)
(0.059559 0.0308323 0)
(0.0610252 0.0228022 0)
(0.0614233 0.0167485 0)
(0.0610886 0.0121172 0)
(0.0601595 0.00833835 0)
(0.0587148 0.00476581 0)
(0.0565135 0.000779961 0)
(0.0537725 -0.00477503 0)
(0.0492789 -0.0124923 0)
(0.0452758 -0.0254151 0)
(0.0329816 -0.0467674 0)
(0.0373064 -0.0858601 0)
(-0.0064181 -0.155325 0)
(0.0322045 -0.250783 0)
(0.0110186 0.100481 0)
(0.0292023 0.0928997 0)
(0.0511487 0.0788482 0)
(0.0679623 0.0649351 0)
(0.0806719 0.0516125 0)
(0.0896313 0.0400326 0)
(0.0952706 0.0307266 0)
(0.0984936 0.0235763 0)
(0.0999885 0.0181864 0)
(0.100385 0.0140326 0)
(0.0998131 0.0106706 0)
(0.0987407 0.00758501 0)
(0.0963929 0.00430802 0)
(0.0942041 -0.000119102 0)
(0.0885946 -0.0062573 0)
(0.0844148 -0.0177786 0)
(0.0689996 -0.0352324 0)
(0.0678491 -0.0726886 0)
(0.0128663 -0.135758 0)
(0.0498347 -0.222835 0)
(0.0153861 0.0510347 0)
(0.0307212 0.0417984 0)
(0.0637255 0.0368069 0)
(0.088575 0.0317776 0)
(0.108329 0.026446 0)
(0.123355 0.0213592 0)
(0.134343 0.0169441 0)
(0.142412 0.0134115 0)
(0.147911 0.010784 0)
(0.152004 0.00866643 0)
(0.154328 0.00701381 0)
(0.156306 0.00513516 0)
(0.156321 0.00347056 0)
(0.156272 -0.000110955 0)
(0.151839 -0.00313262 0)
(0.148559 -0.0115329 0)
(0.134003 -0.02151 0)
(0.126755 -0.0502503 0)
(0.0652741 -0.0940671 0)
(0.0900396 -0.164528 0)
(0.0635127 0.0987967 0)
(0.0772557 0.0638813 0)
(0.123196 0.0434512 0)
(0.157745 0.0339351 0)
(0.184332 0.0280517 0)
(0.205994 0.0236312 0)
(0.223602 0.0200186 0)
(0.238509 0.0171147 0)
(0.250327 0.0146731 0)
(0.260526 0.0127149 0)
(0.268191 0.0108962 0)
(0.275056 0.00938733 0)
(0.279359 0.00765595 0)
(0.282958 0.00607873 0)
(0.283091 0.00367873 0)
(0.279778 0.000490986 0)
(0.269293 -0.00136643 0)
(0.25047 -0.0117341 0)
(0.188826 -0.0225194 0)
(0.172565 -0.117422 0)
)
;

boundaryField
{
    movingWall
    {
        type            fixedValue;
        value           uniform (1 0 0);
    }
    movingWallBottom
    {
        type            fixedValue;
        value           uniform (1 0 0);
    }
    fixedWalls
    {
        type            noSlip;
    }
    frontAndBack
    {
        type            empty;
    }
}


// ************************************************************************* //
