/*--------------------------------*- C++ -*----------------------------------*\
| =========                 |                                                 |
| \\      /  F ield         | OpenFOAM: The Open Source CFD Toolbox           |
|  \\    /   O peration     | Version:  4.1                                   |
|   \\  /    A nd           | Web:      www.OpenFOAM.org                      |
|    \\/     M anipulation  |                                                 |
\*---------------------------------------------------------------------------*/
FoamFile
{
    version     2.0;
    format      ascii;
    class       volScalarField;
    location    "0.5";
    object      epsilon;
}
// * * * * * * * * * * * * * * * * * * * * * * * * * * * * * * * * * * * * * //

dimensions      [0 2 -3 0 0 0 0];

internalField   nonuniform List<scalar> 
400
(
0.0444363
0.0870937
0.130189
0.156832
0.173219
0.183513
0.189989
0.194051
0.196679
0.198604
0.200118
0.201498
0.202397
0.203026
0.203079
0.203387
0.205218
0.208345
0.218804
0.181635
0.00612058
0.00852349
0.0128811
0.0159469
0.018178
0.0200302
0.0216867
0.0232209
0.0246746
0.0260792
0.0273995
0.0286396
0.0296149
0.0304476
0.0307277
0.0307311
0.0331326
0.0439588
0.0768635
0.126548
0.0047992
0.00303735
0.00340086
0.00382515
0.00418862
0.00452077
0.00484203
0.00515649
0.00546388
0.00576143
0.00604091
0.00629534
0.00649863
0.00663373
0.00663613
0.00657411
0.00711428
0.0122573
0.034519
0.0868172
0.00417973
0.00242011
0.00234118
0.00241071
0.00248764
0.00255999
0.00263032
0.00269888
0.00276523
0.00282835
0.0028867
0.00293852
0.00298043
0.00301286
0.00305645
0.00326711
0.00430159
0.00880794
0.0268155
0.0632722
0.00385796
0.00225183
0.00213066
0.00213002
0.00214204
0.00215452
0.00216798
0.00218231
0.0021973
0.00221267
0.00222806
0.00224366
0.00226143
0.00229167
0.00237849
0.00270094
0.00396397
0.00825403
0.0227656
0.0463899
0.00351328
0.0021741
0.00206569
0.00205411
0.00204943
0.00204423
0.00204047
0.00203889
0.0020392
0.00204158
0.00204589
0.00205295
0.00206542
0.00209298
0.00216978
0.00242077
0.00330305
0.00635204
0.015795
0.0292567
0.003252
0.00211619
0.00203432
0.00202631
0.00201954
0.0020099
0.00200088
0.00199406
0.00198968
0.00198786
0.00198806
0.00199141
0.00199966
0.00201841
0.00206511
0.0021939
0.00258541
0.00388486
0.00790618
0.0136292
0.00304148
0.00207155
0.00201375
0.0020127
0.00200777
0.00199797
0.00198774
0.00197932
0.00197323
0.00196945
0.00196788
0.00196838
0.00197236
0.00198202
0.00200408
0.00205738
0.00219632
0.00258224
0.00363382
0.00542685
0.00287556
0.00203869
0.00199994
0.00200471
0.00200219
0.00199321
0.00198297
0.0019741
0.00196729
0.00196254
0.0019596
0.00195828
0.00195877
0.00196196
0.00196956
0.00198694
0.00202837
0.00212564
0.00232498
0.0028964
0.00276768
0.00202064
0.001993
0.00200087
0.00199973
0.00199133
0.00198124
0.00197226
0.00196515
0.00195992
0.00195626
0.00195391
0.00195264
0.00195257
0.00195388
0.00195749
0.00196659
0.00198501
0.00200404
0.00220567
0.00276778
0.00202059
0.00199291
0.00200077
0.00199964
0.00199125
0.00198117
0.0019722
0.0019651
0.00195989
0.00195623
0.00195387
0.00195263
0.00195257
0.00195389
0.00195747
0.0019665
0.00198479
0.00200376
0.00220553
0.00287579
0.00203845
0.00199959
0.00200436
0.00200186
0.00199292
0.00198271
0.00197388
0.0019671
0.00196238
0.00195942
0.00195813
0.0019587
0.00196191
0.00196949
0.00198673
0.00202775
0.00212414
0.00232334
0.00289595
0.00304184
0.00207118
0.00201319
0.00201211
0.00200722
0.00199747
0.0019873
0.00197892
0.00197288
0.00196909
0.00196754
0.00196816
0.00197219
0.00198186
0.00200377
0.00205657
0.00219418
0.00257715
0.00363015
0.00542593
0.00325252
0.00211572
0.0020336
0.00202554
0.00201879
0.00200921
0.00200026
0.00199345
0.00198908
0.00198727
0.0019876
0.00199105
0.00199934
0.00201804
0.00206443
0.00219229
0.00258153
0.0038761
0.00790336
0.013628
0.00351404
0.00217354
0.00206483
0.00205317
0.0020485
0.00204334
0.00203963
0.00203808
0.0020384
0.00204089
0.0020453
0.00205244
0.00206495
0.00209247
0.00216899
0.00241918
0.00329965
0.00634473
0.0157939
0.0292555
0.00385901
0.00225121
0.00212968
0.00212897
0.00214103
0.00215358
0.00216707
0.00218149
0.00219656
0.00221202
0.00222749
0.00224314
0.00226097
0.00229126
0.00237805
0.00270039
0.00396289
0.00825066
0.0227661
0.0463893
0.00418106
0.0024195
0.00234024
0.00240982
0.00248689
0.00255939
0.00262985
0.00269854
0.00276501
0.0028282
0.0028866
0.00293846
0.00298042
0.00301294
0.0030567
0.00326766
0.00430207
0.00880732
0.0268179
0.0632711
0.00480059
0.00303703
0.00340047
0.00382502
0.00418879
0.00452118
0.00484264
0.00515725
0.00546474
0.00576236
0.00604188
0.00629633
0.00649964
0.00663475
0.00663722
0.00657553
0.00711571
0.0122579
0.0345199
0.086813
0.00612176
0.00852403
0.0128823
0.0159487
0.0181804
0.0200329
0.0216895
0.0232237
0.0246774
0.0260818
0.0274019
0.0286418
0.029617
0.0304493
0.0307292
0.0307325
0.0331336
0.0439587
0.0768629
0.126547
0.0444367
0.0870945
0.130191
0.156835
0.173223
0.183518
0.189994
0.194056
0.196684
0.198608
0.200122
0.201501
0.202399
0.203028
0.20308
0.203388
0.205219
0.208346
0.218804
0.181635
)
;

boundaryField
{
    movingWall
    {
        Cmu             0.09;
        kappa           0.41;
        E               9.8;
        type            epsilonWallFunction;
        value           nonuniform List<scalar> 
20
(
0.0444367
0.0870945
0.130191
0.156835
0.173223
0.183518
0.189994
0.194056
0.196684
0.198608
0.200122
0.201501
0.202399
0.203028
0.20308
0.203388
0.205219
0.208346
0.218804
0.181635
)
;
    }
    movingWallBottom
    {
        Cmu             0.09;
        kappa           0.41;
        E               9.8;
        type            epsilonWallFunction;
        value           nonuniform List<scalar> 
20
(
0.0444363
0.0870937
0.130189
0.156832
0.173219
0.183513
0.189989
0.194051
0.196679
0.198604
0.200118
0.201498
0.202397
0.203026
0.203079
0.203387
0.205218
0.208345
0.218804
0.181635
)
;
    }
    fixedWalls
    {
        Cmu             0.09;
        kappa           0.41;
        E               9.8;
        type            epsilonWallFunction;
        value           nonuniform List<scalar> 
40
(
0.0444363
0.00612058
0.0047992
0.00417973
0.00385796
0.00351328
0.003252
0.00304148
0.00287556
0.00276768
0.00276778
0.00287579
0.00304184
0.00325252
0.00351404
0.00385901
0.00418106
0.00480059
0.00612176
0.0444367
0.181635
0.126548
0.0868172
0.0632722
0.0463899
0.0292567
0.0136292
0.00542685
0.0028964
0.00220567
0.00220553
0.00289595
0.00542593
0.013628
0.0292555
0.0463893
0.0632711
0.086813
0.126547
0.181635
)
;
    }
    frontAndBack
    {
        type            empty;
    }
}


// ************************************************************************* //
