/*--------------------------------*- C++ -*----------------------------------*\
| =========                 |                                                 |
| \\      /  F ield         | OpenFOAM: The Open Source CFD Toolbox           |
|  \\    /   O peration     | Version:  4.1                                   |
|   \\  /    A nd           | Web:      www.OpenFOAM.org                      |
|    \\/     M anipulation  |                                                 |
\*---------------------------------------------------------------------------*/
FoamFile
{
    version     2.0;
    format      ascii;
    class       volScalarField;
    location    "0.5";
    object      k;
}
// * * * * * * * * * * * * * * * * * * * * * * * * * * * * * * * * * * * * * //

dimensions      [0 2 -2 0 0 0 0];

internalField   nonuniform List<scalar> 
400
(
0.00424769
0.00665434
0.00869928
0.00984932
0.0105245
0.0109376
0.0111926
0.0113495
0.0114481
0.0115177
0.0115706
0.0116186
0.0116491
0.01167
0.0116712
0.0116818
0.0117522
0.0118735
0.0122742
0.0108497
0.00112924
0.0017755
0.00221795
0.00247896
0.0026547
0.00280228
0.0029428
0.0030808
0.00321645
0.00334946
0.0034753
0.00359321
0.00368723
0.00376695
0.00379072
0.00377281
0.00388394
0.00440585
0.00627485
0.00853292
0.000959139
0.00143511
0.00164972
0.00174564
0.0017908
0.00181618
0.00183787
0.00186059
0.00188547
0.00191197
0.00193867
0.00196409
0.00197954
0.00198027
0.00193275
0.00181503
0.00172224
0.00205876
0.00387451
0.00665165
0.000874699
0.00141964
0.00163838
0.00172765
0.00175917
0.00176654
0.00176644
0.00176446
0.00176349
0.00176345
0.00176324
0.00176019
0.00174782
0.00171273
0.00162902
0.00147928
0.00139802
0.0017162
0.00339913
0.00539706
0.000829228
0.00140242
0.00165396
0.00176288
0.00180196
0.00181086
0.00180912
0.00180346
0.00179772
0.00179228
0.00178569
0.00177449
0.00175168
0.0017041
0.00161036
0.00145408
0.00137802
0.0016343
0.00305586
0.0044068
0.000778915
0.0013839
0.00165779
0.00178174
0.00183114
0.00184508
0.00184571
0.00184098
0.00183533
0.0018296
0.00182245
0.00181038
0.00178677
0.00174007
0.0016519
0.00149785
0.00137302
0.00144293
0.00232576
0.00327925
0.000739621
0.00136201
0.00165072
0.00178665
0.00184393
0.00186254
0.00186538
0.00186221
0.00185736
0.00185218
0.00184557
0.00183428
0.00181231
0.00176989
0.00169285
0.00156334
0.00137003
0.00126097
0.00145961
0.00199722
0.000707133
0.00134353
0.00164065
0.00178463
0.00184758
0.00186961
0.00187405
0.00187199
0.00186769
0.00186286
0.00185657
0.00184585
0.00182523
0.0017862
0.00171715
0.00160413
0.00143277
0.00119379
0.00101141
0.00107643
0.000680976
0.00133035
0.00163228
0.0017809
0.0018475
0.0018717
0.00187714
0.00187572
0.00187165
0.00186686
0.00186059
0.00185002
0.00183006
0.00179296
0.0017284
0.00162425
0.00146698
0.00123696
0.00090106
0.000692729
0.000663702
0.00132375
0.00162795
0.0017786
0.00184681
0.00187205
0.00187796
0.0018768
0.00187279
0.00186796
0.00186159
0.00185098
0.00183124
0.00179495
0.00173244
0.00163225
0.0014811
0.00125757
0.000905587
0.000570312
0.000663717
0.00132376
0.00162797
0.00177862
0.00184684
0.00187207
0.00187798
0.00187682
0.00187281
0.00186798
0.00186161
0.001851
0.00183125
0.00179496
0.00173245
0.00163226
0.00148111
0.00125758
0.000905586
0.000570286
0.000681013
0.00133041
0.00163234
0.00178098
0.00184757
0.00187177
0.00187721
0.00187578
0.00187172
0.00186693
0.00186065
0.00185007
0.00183011
0.001793
0.00172845
0.0016243
0.00146703
0.00123703
0.000901103
0.000692655
0.000707192
0.00134364
0.00164077
0.00178476
0.00184772
0.00186974
0.00187419
0.00187213
0.00186783
0.00186299
0.00185669
0.00184597
0.00182534
0.00178631
0.00171726
0.00160426
0.00143296
0.00119412
0.00101153
0.00107631
0.000739703
0.00136218
0.00165091
0.00178685
0.00184413
0.00186275
0.0018656
0.00186243
0.00185759
0.00185241
0.00184579
0.00183448
0.00181251
0.0017701
0.00169308
0.00156365
0.00137056
0.00126161
0.00145961
0.0019971
0.00077903
0.00138414
0.00165806
0.00178202
0.00183143
0.0018454
0.00184605
0.00184133
0.00183569
0.00182996
0.0018228
0.00181073
0.00178711
0.00174042
0.0016523
0.00149843
0.00137381
0.00144369
0.0023254
0.00327916
0.000829382
0.00140274
0.00165429
0.00176326
0.00180238
0.00181132
0.0018096
0.00180396
0.00179823
0.00179279
0.0017862
0.00177501
0.00175219
0.00170462
0.00161094
0.00145483
0.00137884
0.00163494
0.00305572
0.00440676
0.000874886
0.00142001
0.00163882
0.00172816
0.00175973
0.00176714
0.00176708
0.00176512
0.00176416
0.00176413
0.00176393
0.00176088
0.0017485
0.00171341
0.00162971
0.00148004
0.0013988
0.00171678
0.00339926
0.00539699
0.000959325
0.00143552
0.00165021
0.0017462
0.00179142
0.00181684
0.00183856
0.0018613
0.00188619
0.00191269
0.00193939
0.00196482
0.00198027
0.00198098
0.00193345
0.0018157
0.00172281
0.00205906
0.00387445
0.00665144
0.00112938
0.0017759
0.00221844
0.00247952
0.00265528
0.00280288
0.0029434
0.00308138
0.00321702
0.00335
0.00347581
0.0035937
0.0036877
0.00376737
0.00379108
0.00377312
0.0038842
0.00440595
0.00627481
0.0085329
0.00424771
0.00665437
0.00869936
0.00984945
0.0105246
0.0109378
0.0111928
0.0113497
0.0114482
0.0115179
0.0115708
0.0116187
0.0116492
0.0116701
0.0116712
0.0116818
0.0117522
0.0118735
0.0122742
0.0108497
)
;

boundaryField
{
    movingWall
    {
        type            kqRWallFunction;
        value           nonuniform List<scalar> 
20
(
0.00424771
0.00665437
0.00869936
0.00984945
0.0105246
0.0109378
0.0111928
0.0113497
0.0114482
0.0115179
0.0115708
0.0116187
0.0116492
0.0116701
0.0116712
0.0116818
0.0117522
0.0118735
0.0122742
0.0108497
)
;
    }
    movingWallBottom
    {
        type            kqRWallFunction;
        value           nonuniform List<scalar> 
20
(
0.00424769
0.00665434
0.00869928
0.00984932
0.0105245
0.0109376
0.0111926
0.0113495
0.0114481
0.0115177
0.0115706
0.0116186
0.0116491
0.01167
0.0116712
0.0116818
0.0117522
0.0118735
0.0122742
0.0108497
)
;
    }
    fixedWalls
    {
        type            kqRWallFunction;
        value           nonuniform List<scalar> 
40
(
0.00424769
0.00112924
0.000959139
0.000874699
0.000829228
0.000778915
0.000739621
0.000707133
0.000680976
0.000663702
0.000663717
0.000681013
0.000707192
0.000739703
0.00077903
0.000829382
0.000874886
0.000959325
0.00112938
0.00424771
0.0108497
0.00853292
0.00665165
0.00539706
0.0044068
0.00327925
0.00199722
0.00107643
0.000692729
0.000570312
0.000570286
0.000692655
0.00107631
0.0019971
0.00327916
0.00440676
0.00539699
0.00665144
0.0085329
0.0108497
)
;
    }
    frontAndBack
    {
        type            empty;
    }
}


// ************************************************************************* //
