/*--------------------------------*- C++ -*----------------------------------*\
| =========                 |                                                 |
| \\      /  F ield         | OpenFOAM: The Open Source CFD Toolbox           |
|  \\    /   O peration     | Version:  4.1                                   |
|   \\  /    A nd           | Web:      www.OpenFOAM.org                      |
|    \\/     M anipulation  |                                                 |
\*---------------------------------------------------------------------------*/
FoamFile
{
    version     2.0;
    format      ascii;
    class       volScalarField;
    location    "0.5";
    object      nut;
}
// * * * * * * * * * * * * * * * * * * * * * * * * * * * * * * * * * * * * * //

dimensions      [0 2 -1 0 0 0 0];

internalField   nonuniform List<scalar> 
400
(
3.65435e-05
4.57578e-05
5.23159e-05
5.56701e-05
5.75504e-05
5.86701e-05
5.93443e-05
5.97423e-05
5.9972e-05
6.01159e-05
6.02101e-05
6.0295e-05
6.03422e-05
6.03718e-05
6.03679e-05
6.03858e-05
6.05708e-05
6.08997e-05
6.19691e-05
5.83279e-05
1.87509e-05
3.32863e-05
3.43711e-05
3.46823e-05
3.4892e-05
3.52842e-05
3.59394e-05
3.67867e-05
3.77351e-05
3.87166e-05
3.96719e-05
4.05734e-05
4.13173e-05
4.19439e-05
4.20878e-05
4.16863e-05
4.09761e-05
3.97425e-05
4.6103e-05
5.17824e-05
1.72519e-05
6.10267e-05
7.20237e-05
7.16975e-05
6.89074e-05
6.56672e-05
6.27835e-05
6.04216e-05
5.85575e-05
5.7105e-05
5.59947e-05
5.51501e-05
5.4269e-05
5.32027e-05
5.06617e-05
4.50996e-05
3.7523e-05
3.11214e-05
3.91398e-05
4.58665e-05
1.64745e-05
7.49484e-05
0.000103189
0.000111432
0.000111962
0.000109712
0.000106766
0.000103821
0.000101218
9.89547e-05
9.69318e-05
9.48932e-05
9.22479e-05
8.7628e-05
7.81411e-05
6.02806e-05
4.08924e-05
3.00957e-05
3.87786e-05
4.14328e-05
1.60411e-05
7.86078e-05
0.000115552
0.000131312
0.000136428
0.000136982
0.000135869
0.000134134
0.000132372
0.000130658
0.000128803
0.000126309
0.000122115
0.000114046
9.81266e-05
7.04542e-05
4.31146e-05
2.91234e-05
3.69174e-05
3.76761e-05
1.55421e-05
7.92817e-05
0.000119739
0.000139094
0.000147248
0.000149879
0.000150258
0.000149605
0.000148665
0.000147567
0.000146106
0.000143683
0.000139115
0.0001302
0.000113186
8.34114e-05
5.13666e-05
2.94999e-05
3.08215e-05
3.308e-05
1.51395e-05
7.88947e-05
0.00012055
0.00014178
0.000151522
0.000155339
0.000156515
0.000156517
0.000156045
0.000155319
0.000154197
0.000152059
0.000147826
0.000139677
0.000124892
0.000100261
6.5339e-05
3.68362e-05
2.42519e-05
2.63405e-05
1.47966e-05
7.84225e-05
0.0001203
0.000142416
0.000153015
0.000157455
0.000159018
0.000159344
0.000159102
0.000158583
0.00015764
0.000155785
0.000152017
0.000144876
0.000132416
0.000112566
8.412e-05
4.96707e-05
2.53355e-05
1.92161e-05
1.45139e-05
7.81313e-05
0.000119898
0.000142388
0.000153428
0.000158184
0.000159926
0.000160401
0.000160259
0.000159827
0.000158991
0.000157297
0.000153883
0.000147467
0.000136509
0.0001195
9.54873e-05
6.47837e-05
3.1429e-05
1.49112e-05
1.43243e-05
7.80481e-05
0.000119679
0.000142292
0.000153503
0.000158392
0.000160205
0.000160736
0.00016063
0.000160228
0.000159435
0.000157812
0.000154564
0.000148505
0.000138249
0.000122495
0.000100392
7.17046e-05
3.68295e-05
1.32717e-05
1.43245e-05
7.80524e-05
0.000119688
0.000142303
0.000153514
0.000158402
0.000160214
0.000160745
0.000160638
0.000160234
0.00015944
0.000157818
0.000154567
0.000148507
0.000138251
0.000122497
0.000100398
7.17128e-05
3.68347e-05
1.32714e-05
1.45143e-05
7.81474e-05
0.000119929
0.000142424
0.000153466
0.000158219
0.000159959
0.000160431
0.000160287
0.000159851
0.000159016
0.000157317
0.000153896
0.000147477
0.000136521
0.000119519
9.55226e-05
6.48363e-05
3.14542e-05
1.49103e-05
1.47972e-05
7.84493e-05
0.000120352
0.000142479
0.00015308
0.000157517
0.000159076
0.000159399
0.000159153
0.000158634
0.000157689
0.000155822
0.000152048
0.000144905
0.000132455
0.000112629
8.42247e-05
4.97966e-05
2.53673e-05
1.9215e-05
1.51404e-05
7.89322e-05
0.000120621
0.000141866
0.000151612
0.000155428
0.000156601
0.000156603
0.000156131
0.000155403
0.000154268
0.000152121
0.000147882
0.000139735
0.000124967
0.000100375
6.54885e-05
3.69572e-05
2.42606e-05
2.63398e-05
1.55433e-05
7.93302e-05
0.000119827
0.0001392
0.000147363
0.000149996
0.000150376
0.000149722
0.000148783
0.000147675
0.000146205
0.000143773
0.000139199
0.000130283
0.000113282
8.35308e-05
5.14785e-05
2.95649e-05
3.08141e-05
3.30796e-05
1.60426e-05
7.86643e-05
0.000115652
0.000131433
0.000136556
0.000137111
0.000136
0.000134259
0.000132493
0.000130772
0.000128911
0.000126411
0.00012221
0.000114137
9.82162e-05
7.05405e-05
4.31776e-05
2.91579e-05
3.6913e-05
3.76759e-05
1.64763e-05
7.50066e-05
0.000103286
0.000111538
0.000112067
0.000109812
0.000106862
0.000103911
0.000101303
9.90365e-05
9.70109e-05
9.49696e-05
9.23205e-05
8.76946e-05
7.82007e-05
6.03329e-05
4.09331e-05
3.0118e-05
3.8778e-05
4.14325e-05
1.72536e-05
6.10675e-05
7.20747e-05
7.17462e-05
6.89523e-05
6.57087e-05
6.28226e-05
6.04584e-05
5.85927e-05
5.7139e-05
5.60277e-05
5.51822e-05
5.43002e-05
5.32328e-05
5.06898e-05
4.51233e-05
3.75406e-05
3.11287e-05
3.91375e-05
4.58658e-05
1.87521e-05
3.32994e-05
3.4383e-05
3.46936e-05
3.49028e-05
3.52947e-05
3.59493e-05
3.67962e-05
3.77442e-05
3.87253e-05
3.96802e-05
4.05814e-05
4.13251e-05
4.19509e-05
4.20937e-05
4.16914e-05
4.09804e-05
3.97445e-05
4.61028e-05
5.17824e-05
3.65436e-05
4.57579e-05
5.23161e-05
5.56704e-05
5.75509e-05
5.86706e-05
5.93448e-05
5.97428e-05
5.99725e-05
6.01164e-05
6.02106e-05
6.02953e-05
6.03425e-05
6.0372e-05
6.03681e-05
6.03859e-05
6.05709e-05
6.08998e-05
6.19692e-05
5.8328e-05
)
;

boundaryField
{
    movingWall
    {
        type            nutkWallFunction;
        Cmu             0.09;
        kappa           0.41;
        E               9.8;
        value           nonuniform List<scalar> 
20
(
0
0
8.4218e-07
1.39021e-06
1.69489e-06
1.87578e-06
1.98552e-06
2.0523e-06
2.09397e-06
2.1233e-06
2.1455e-06
2.16559e-06
2.17831e-06
2.18704e-06
2.18751e-06
2.19192e-06
2.22123e-06
2.27149e-06
2.43545e-06
1.83756e-06
)
;
    }
    movingWallBottom
    {
        type            nutkWallFunction;
        Cmu             0.09;
        kappa           0.41;
        E               9.8;
        value           nonuniform List<scalar> 
20
(
0
0
8.42141e-07
1.39015e-06
1.69482e-06
1.8757e-06
1.98543e-06
2.05221e-06
2.09389e-06
2.12323e-06
2.14544e-06
2.16554e-06
2.17827e-06
2.18701e-06
2.18748e-06
2.1919e-06
2.22122e-06
2.27148e-06
2.43544e-06
1.83755e-06
)
;
    }
    fixedWalls
    {
        type            nutkWallFunction;
        Cmu             0.09;
        kappa           0.41;
        E               9.8;
        value           nonuniform List<scalar> 
40
(
0
0
0
0
0
0
0
0
0
0
0
0
0
0
0
0
0
0
0
0
1.83755e-06
7.59479e-07
0
0
0
0
0
0
0
0
0
0
0
0
0
0
0
0
7.59469e-07
1.83756e-06
)
;
    }
    frontAndBack
    {
        type            empty;
    }
}


// ************************************************************************* //
