/*--------------------------------*- C++ -*----------------------------------*\
| =========                 |                                                 |
| \\      /  F ield         | OpenFOAM: The Open Source CFD Toolbox           |
|  \\    /   O peration     | Version:  4.1                                   |
|   \\  /    A nd           | Web:      www.OpenFOAM.org                      |
|    \\/     M anipulation  |                                                 |
\*---------------------------------------------------------------------------*/
FoamFile
{
    version     2.0;
    format      ascii;
    class       volScalarField;
    location    "0.5";
    object      p;
}
// * * * * * * * * * * * * * * * * * * * * * * * * * * * * * * * * * * * * * //

dimensions      [0 2 -2 0 0 0 0];

internalField   nonuniform List<scalar> 
400
(
4.85651e-08
0.000714849
-0.000647482
-0.00150415
-0.00191027
-0.00213405
-0.00230809
-0.00247091
-0.00263449
-0.00280385
-0.00299224
-0.0032095
-0.00348802
-0.00384022
-0.00424366
-0.0044912
-0.00407914
-0.0014895
0.0057989
0.0236258
-0.00476035
-0.00403739
-0.00358083
-0.00323498
-0.00305035
-0.00296036
-0.00293263
-0.00295128
-0.00300871
-0.0030971
-0.00321595
-0.00336525
-0.0035792
-0.00389477
-0.00438182
-0.0050002
-0.00558147
-0.00486095
-0.00282826
0.0139978
-0.00275578
-0.00265429
-0.00260688
-0.00258114
-0.00258504
-0.00261173
-0.00265315
-0.00270877
-0.00277949
-0.00286573
-0.00297126
-0.0031052
-0.00329553
-0.00358419
-0.00403157
-0.00456331
-0.0059813
-0.00536197
-0.0072162
0.00277531
-0.00248033
-0.00252837
-0.00254891
-0.00252841
-0.0025197
-0.00252741
-0.00254902
-0.00258264
-0.00262716
-0.00268226
-0.0027507
-0.00284091
-0.00297289
-0.00317842
-0.00350871
-0.00405304
-0.00496072
-0.0050553
-0.00632596
-0.00137327
-0.00217496
-0.00227539
-0.0023449
-0.00236591
-0.00237486
-0.00238679
-0.00240411
-0.00242563
-0.00244986
-0.00247592
-0.00250458
-0.00253984
-0.00259112
-0.0026727
-0.00280744
-0.00306562
-0.00346368
-0.00354727
-0.0034561
-1.87067e-05
-0.0019743
-0.00208898
-0.00217257
-0.00221216
-0.00223267
-0.00224789
-0.00226096
-0.00227096
-0.00227556
-0.00227218
-0.0022584
-0.00223228
-0.0021922
-0.00213444
-0.00205322
-0.0019527
-0.0017877
-0.00129192
-0.000141449
0.00218824
-0.00183495
-0.00195025
-0.00203801
-0.00208697
-0.00211396
-0.00213013
-0.0021381
-0.0021366
-0.00212241
-0.0020912
-0.0020375
-0.00195434
-0.001832
-0.00165495
-0.00139786
-0.00102241
-0.000448128
0.000543082
0.00221364
0.00345803
-0.00174495
-0.00185518
-0.00194201
-0.00199414
-0.00202354
-0.00203878
-0.00204163
-0.00203012
-0.00200013
-0.00194586
-0.00185966
-0.00173128
-0.00154656
-0.0012848
-0.000914545
-0.000388484
0.000366908
0.00147165
0.0029969
0.00370542
-0.00168945
-0.00179535
-0.0018801
-0.00193272
-0.00196252
-0.00197631
-0.00197505
-0.00195622
-0.00191496
-0.00184451
-0.00173586
-0.00157703
-0.00135196
-0.00103896
-0.00060818
-1.83444e-05
0.000776203
0.00180989
0.00298097
0.00354001
-0.00166295
-0.00176645
-0.00184979
-0.00190217
-0.0019318
-0.00194459
-0.00194107
-0.00191837
-0.00187127
-0.00179252
-0.0016725
-0.00149844
-0.00125385
-0.000917565
-0.000462153
0.000146079
0.000939311
0.00189777
0.00286829
0.00338342
-0.00166298
-0.00176648
-0.00184982
-0.00190221
-0.00193183
-0.00194463
-0.0019411
-0.0019184
-0.00187129
-0.00179254
-0.00167252
-0.00149845
-0.00125386
-0.000917586
-0.000462184
0.000146055
0.000939287
0.0018977
0.00286816
0.00338331
-0.00168952
-0.00179544
-0.00188021
-0.00193283
-0.00196262
-0.0019764
-0.00197514
-0.00195629
-0.00191502
-0.00184456
-0.00173591
-0.00157707
-0.001352
-0.00103902
-0.000608251
-1.84133e-05
0.000776129
0.00180969
0.0029806
0.00353972
-0.00174507
-0.00185534
-0.00194219
-0.00199433
-0.00202371
-0.00203894
-0.00204176
-0.00203023
-0.00200022
-0.00194593
-0.00185972
-0.00173134
-0.00154662
-0.00128487
-0.000914627
-0.00038857
0.000366775
0.00147137
0.00299656
0.0037051
-0.00183514
-0.00195048
-0.00203829
-0.00208724
-0.00211421
-0.00213034
-0.00213828
-0.00213674
-0.00212252
-0.00209128
-0.00203756
-0.00195439
-0.00183205
-0.00165502
-0.00139795
-0.00102255
-0.000448295
0.000542982
0.00221366
0.00345797
-0.00197458
-0.00208931
-0.00217295
-0.00221252
-0.00223299
-0.00224816
-0.00226117
-0.00227113
-0.00227569
-0.00227227
-0.00225846
-0.00223233
-0.00219224
-0.00213449
-0.0020533
-0.0019528
-0.00178768
-0.00129162
-0.000140938
0.00218854
-0.00217534
-0.00227585
-0.0023454
-0.00236637
-0.00237525
-0.00238712
-0.00240438
-0.00242584
-0.00245001
-0.00247602
-0.00250465
-0.00253988
-0.00259115
-0.00267274
-0.00280748
-0.00306562
-0.00346341
-0.00354662
-0.0034552
-1.8067e-05
-0.00248088
-0.00252898
-0.00254952
-0.00252896
-0.00252018
-0.00252781
-0.00254935
-0.0025829
-0.00262735
-0.00268238
-0.00275078
-0.00284095
-0.00297291
-0.00317843
-0.00350871
-0.00405298
-0.00496037
-0.00505459
-0.00632513
-0.00137266
-0.00275659
-0.00265508
-0.00260758
-0.00258177
-0.00258559
-0.0026122
-0.00265354
-0.00270908
-0.00277972
-0.00286587
-0.00297133
-0.00310522
-0.00329552
-0.00358416
-0.00403153
-0.00456322
-0.0059811
-0.0053614
-0.00721598
0.0027754
-0.00476123
-0.00403825
-0.00358161
-0.0032357
-0.00305097
-0.00296088
-0.00293306
-0.0029516
-0.00300893
-0.00309722
-0.00321599
-0.00336524
-0.00357915
-0.00389471
-0.00438177
-0.00500014
-0.00558141
-0.00486094
-0.00282862
0.0139973
-7.50304e-07
0.000714064
-0.000648237
-0.00150484
-0.00191088
-0.00213457
-0.00230852
-0.00247126
-0.00263475
-0.00280402
-0.00299232
-0.00320952
-0.00348801
-0.00384019
-0.00424363
-0.00449117
-0.00407916
-0.0014897
0.00579832
0.0236251
)
;

boundaryField
{
    movingWall
    {
        type            zeroGradient;
    }
    movingWallBottom
    {
        type            zeroGradient;
    }
    fixedWalls
    {
        type            zeroGradient;
    }
    frontAndBack
    {
        type            empty;
    }
}


// ************************************************************************* //
