/*--------------------------------*- C++ -*----------------------------------*\
| =========                 |                                                 |
| \\      /  F ield         | OpenFOAM: The Open Source CFD Toolbox           |
|  \\    /   O peration     | Version:  4.1                                   |
|   \\  /    A nd           | Web:      www.OpenFOAM.org                      |
|    \\/     M anipulation  |                                                 |
\*---------------------------------------------------------------------------*/
FoamFile
{
    version     2.0;
    format      ascii;
    class       surfaceScalarField;
    location    "0.5";
    object      phi;
}
// * * * * * * * * * * * * * * * * * * * * * * * * * * * * * * * * * * * * * //

dimensions      [0 3 -1 0 0 0 0];

internalField   nonuniform List<scalar> 
760
(
2.61316e-06
-2.61317e-06
4.06265e-06
-1.44949e-06
5.06103e-06
-9.98385e-07
5.89709e-06
-8.36051e-07
6.62086e-06
-7.23779e-07
7.25511e-06
-6.34246e-07
7.82092e-06
-5.65805e-07
8.3346e-06
-5.13686e-07
8.80604e-06
-4.71443e-07
9.23809e-06
-4.32048e-07
9.63573e-06
-3.97641e-07
9.99792e-06
-3.62183e-07
1.03406e-05
-3.42638e-07
1.06557e-05
-3.15175e-07
1.09479e-05
-2.92185e-07
1.1156e-05
-2.08051e-07
1.10281e-05
1.27915e-07
1.00718e-05
9.56264e-07
7.26938e-06
2.80241e-06
7.26938e-06
-3.42857e-07
-2.27031e-06
-2.00139e-07
-1.59221e-06
1.09977e-07
-1.3085e-06
4.21425e-07
-1.1475e-06
7.17418e-07
-1.01977e-06
9.91134e-07
-9.07962e-07
1.24301e-06
-8.17686e-07
1.47485e-06
-7.45519e-07
1.68913e-06
-6.85722e-07
1.89128e-06
-6.34198e-07
2.08549e-06
-5.9185e-07
2.28372e-06
-5.60414e-07
2.49177e-06
-5.50695e-07
2.7365e-06
-5.59903e-07
3.032e-06
-5.87679e-07
3.37396e-06
-5.50018e-07
3.55518e-06
-5.33016e-08
3.46745e-06
1.04399e-06
2.02444e-06
4.24542e-06
9.29382e-06
-5.04852e-07
-1.76546e-06
-5.84329e-07
-1.51273e-06
-5.98981e-07
-1.29385e-06
-6.17804e-07
-1.12868e-06
-6.34505e-07
-1.00307e-06
-6.43111e-07
-8.99356e-07
-6.45665e-07
-8.15132e-07
-6.44245e-07
-7.46939e-07
-6.3812e-07
-6.91847e-07
-6.23622e-07
-6.48697e-07
-5.95962e-07
-6.1951e-07
-5.46961e-07
-6.09415e-07
-4.69539e-07
-6.28117e-07
-3.48847e-07
-6.80594e-07
-1.88004e-07
-7.48522e-07
-1.18988e-08
-7.26123e-07
3.96986e-07
-4.62186e-07
1.35806e-07
1.30517e-06
1.888e-08
4.36234e-06
9.3127e-06
-4.36362e-07
-1.3291e-06
-6.48906e-07
-1.30018e-06
-7.74768e-07
-1.16799e-06
-8.69775e-07
-1.03367e-06
-9.53975e-07
-9.18872e-07
-1.02967e-06
-8.23663e-07
-1.09881e-06
-7.45991e-07
-1.16201e-06
-6.83741e-07
-1.21854e-06
-6.35318e-07
-1.26681e-06
-6.00425e-07
-1.30504e-06
-5.81279e-07
-1.33131e-06
-5.83139e-07
-1.34528e-06
-6.14147e-07
-1.34541e-06
-6.80472e-07
-1.32489e-06
-7.69037e-07
-1.23835e-06
-8.12664e-07
-1.17811e-06
-5.2243e-07
-9.68465e-07
1.09553e-06
-9.10418e-07
4.3043e-06
8.40228e-06
-3.12014e-07
-1.01708e-06
-5.58894e-07
-1.0533e-06
-7.48033e-07
-9.78848e-07
-8.96496e-07
-8.85207e-07
-1.02033e-06
-7.95043e-07
-1.12816e-06
-7.15831e-07
-1.22466e-06
-6.49493e-07
-1.31243e-06
-5.95962e-07
-1.39323e-06
-5.54524e-07
-1.46835e-06
-5.25307e-07
-1.53962e-06
-5.10003e-07
-1.6107e-06
-5.12066e-07
-1.68876e-06
-5.36082e-07
-1.78535e-06
-5.8388e-07
-1.91077e-06
-6.43616e-07
-2.06463e-06
-6.58811e-07
-2.19881e-06
-3.88252e-07
-1.93958e-06
8.36309e-07
-1.41446e-06
3.77917e-06
6.98783e-06
-2.57839e-07
-7.59244e-07
-4.9327e-07
-8.17874e-07
-6.93419e-07
-7.78698e-07
-8.6232e-07
-7.16306e-07
-1.00718e-06
-6.5018e-07
-1.13422e-06
-5.88789e-07
-1.24806e-06
-5.35657e-07
-1.35211e-06
-4.91913e-07
-1.44902e-06
-4.57617e-07
-1.54154e-06
-4.32784e-07
-1.63361e-06
-4.17929e-07
-1.73171e-06
-4.13967e-07
-1.84662e-06
-4.21179e-07
-1.99468e-06
-4.35814e-07
-2.19631e-06
-4.41986e-07
-2.46402e-06
-3.91104e-07
-2.72637e-06
-1.259e-07
-2.67044e-06
7.80373e-07
-1.90742e-06
3.01615e-06
5.08041e-06
-2.1647e-07
-5.42774e-07
-4.37615e-07
-5.96728e-07
-6.38454e-07
-5.77859e-07
-8.16025e-07
-5.38735e-07
-9.72657e-07
-4.93548e-07
-1.11197e-06
-4.49472e-07
-1.23756e-06
-4.10076e-07
-1.35263e-06
-3.7684e-07
-1.46013e-06
-3.5012e-07
-1.56318e-06
-3.2973e-07
-1.66587e-06
-3.15241e-07
-1.77415e-06
-3.05681e-07
-1.89691e-06
-2.98418e-07
-2.04638e-06
-2.86349e-07
-2.23635e-06
-2.52015e-07
-2.47165e-06
-1.55806e-07
-2.70066e-06
1.03117e-07
-2.68218e-06
7.61887e-07
-1.85353e-06
2.1875e-06
3.22688e-06
-1.92229e-07
-3.50545e-07
-3.99305e-07
-3.89653e-07
-5.95767e-07
-3.81397e-07
-7.75628e-07
-3.58874e-07
-9.38135e-07
-3.31041e-07
-1.08478e-06
-3.02831e-07
-1.21791e-06
-2.7694e-07
-1.34014e-06
-2.54609e-07
-1.45408e-06
-2.36179e-07
-1.56244e-06
-2.21373e-07
-1.66826e-06
-2.09419e-07
-1.77521e-06
-1.98736e-07
-1.88761e-06
-1.8602e-07
-2.00963e-06
-1.64327e-07
-2.14147e-06
-1.20173e-07
-2.27001e-06
-2.72694e-08
-2.34483e-06
1.77935e-07
-2.18432e-06
6.01378e-07
-1.39115e-06
1.39433e-06
1.83573e-06
-1.78376e-07
-1.72168e-07
-3.75681e-07
-1.92348e-07
-5.67701e-07
-1.89377e-07
-7.47413e-07
-1.79162e-07
-9.12489e-07
-1.65965e-07
-1.06306e-06
-1.52255e-07
-1.20055e-06
-1.39453e-07
-1.32692e-06
-1.28242e-07
-1.44428e-06
-1.18815e-07
-1.55468e-06
-1.10976e-07
-1.65992e-06
-1.04181e-07
-1.7613e-06
-9.73507e-08
-1.859e-06
-8.83187e-08
-1.95067e-06
-7.2664e-08
-2.0265e-06
-4.43431e-08
-2.06533e-06
1.15696e-08
-2.00973e-06
1.22331e-07
-1.73645e-06
3.281e-07
-1.00352e-06
6.61395e-07
8.32212e-07
-1.72232e-07
6.34654e-11
-3.64614e-07
3.38582e-11
-5.5401e-07
1.88293e-11
-7.33181e-07
9.24817e-12
-8.99148e-07
1.24428e-12
-1.0514e-06
-5.81271e-12
-1.19084e-06
-1.22214e-11
-1.31906e-06
-1.80386e-11
-1.43785e-06
-2.35856e-11
-1.5488e-06
-2.92754e-11
-1.65295e-06
-3.55837e-11
-1.75025e-06
-4.27482e-11
-1.83852e-06
-4.93852e-11
-1.91113e-06
-5.44555e-11
-1.95542e-06
-5.49201e-11
-1.9438e-06
-4.95921e-11
-1.82144e-06
-3.11304e-11
-1.49336e-06
1.72535e-11
-8.32063e-07
1.01407e-10
1.49435e-10
-1.72231e-07
1.72294e-07
-3.64613e-07
1.92416e-07
-5.5401e-07
1.89416e-07
-7.33183e-07
1.79182e-07
-8.9915e-07
1.65969e-07
-1.0514e-06
1.52245e-07
-1.19084e-06
1.39429e-07
-1.31907e-06
1.28207e-07
-1.43786e-06
1.18769e-07
-1.54881e-06
1.10919e-07
-1.65295e-06
1.04112e-07
-1.75026e-06
9.72671e-08
-1.83854e-06
8.82224e-08
-1.91115e-06
7.25564e-08
-1.95544e-06
4.4234e-08
-1.94381e-06
-1.16766e-08
-1.82143e-06
-1.22405e-07
-1.49334e-06
-3.28079e-07
-8.32067e-07
-6.61171e-07
-8.31917e-07
-1.78376e-07
3.50671e-07
-3.75682e-07
3.89722e-07
-5.67705e-07
3.81439e-07
-7.4742e-07
3.58897e-07
-9.12498e-07
3.31047e-07
-1.06307e-06
3.02822e-07
-1.20056e-06
2.76918e-07
-1.32693e-06
2.54576e-07
-1.4443e-06
2.36135e-07
-1.5547e-06
2.21319e-07
-1.65994e-06
2.09353e-07
-1.76133e-06
1.98659e-07
-1.85904e-06
1.85932e-07
-1.95072e-06
1.6423e-07
-2.02655e-06
1.20068e-07
-2.06539e-06
2.71595e-08
-2.00976e-06
-1.78031e-07
-1.73648e-06
-6.01363e-07
-1.00357e-06
-1.39408e-06
-1.83549e-06
-1.92234e-07
5.42905e-07
-3.99314e-07
5.96802e-07
-5.95779e-07
5.77904e-07
-7.75643e-07
5.3876e-07
-9.38152e-07
4.93556e-07
-1.08479e-06
4.49465e-07
-1.21793e-06
4.10056e-07
-1.34017e-06
3.76809e-07
-1.45411e-06
3.5008e-07
-1.56247e-06
3.29681e-07
-1.6683e-06
3.15183e-07
-1.77526e-06
3.05616e-07
-1.88768e-06
2.98349e-07
-2.00972e-06
2.86273e-07
-2.14158e-06
2.51931e-07
-2.27012e-06
1.55698e-07
-2.3449e-06
-1.03254e-07
-2.18437e-06
-7.61883e-07
-1.39127e-06
-2.18718e-06
-3.22676e-06
-2.16484e-07
7.59388e-07
-4.37637e-07
8.17956e-07
-6.3848e-07
7.78747e-07
-8.16049e-07
7.1633e-07
-9.7268e-07
6.50186e-07
-1.11199e-06
5.8878e-07
-1.23757e-06
5.35636e-07
-1.35265e-06
4.91881e-07
-1.46014e-06
4.57576e-07
-1.5632e-06
4.32737e-07
-1.6659e-06
4.17881e-07
-1.7742e-06
4.13919e-07
-1.89698e-06
4.21132e-07
-2.04648e-06
4.35764e-07
-2.23646e-06
4.41916e-07
-2.47172e-06
3.9096e-07
-2.70063e-06
1.25652e-07
-2.68212e-06
-7.80391e-07
-1.85356e-06
-3.01574e-06
-5.08032e-06
-2.57868e-07
1.01726e-06
-4.93306e-07
1.05339e-06
-6.93449e-07
9.7889e-07
-8.6234e-07
8.85221e-07
-1.00719e-06
7.95037e-07
-1.13422e-06
7.15812e-07
-1.24805e-06
6.49463e-07
-1.35209e-06
5.95924e-07
-1.449e-06
5.5448e-07
-1.54152e-06
5.25262e-07
-1.6336e-06
5.09962e-07
-1.73171e-06
5.1203e-07
-1.84663e-06
5.36051e-07
-1.99471e-06
5.83843e-07
-2.19633e-06
6.43531e-07
-2.46396e-06
6.58597e-07
-2.72623e-06
3.87918e-07
-2.67034e-06
-8.36277e-07
-1.90736e-06
-3.77872e-06
-6.98768e-06
-3.12052e-07
1.32931e-06
-5.58924e-07
1.30027e-06
-7.48036e-07
1.168e-06
-8.96471e-07
1.03366e-06
-1.02028e-06
9.18845e-07
-1.12809e-06
8.23627e-07
-1.22458e-06
7.45948e-07
-1.31235e-06
6.83694e-07
-1.39314e-06
6.35269e-07
-1.46825e-06
6.00379e-07
-1.53953e-06
5.8124e-07
-1.61061e-06
5.83108e-07
-1.68868e-06
6.14121e-07
-1.78527e-06
6.80438e-07
-1.91068e-06
7.68941e-07
-2.06454e-06
8.1245e-07
-2.19876e-06
5.22135e-07
-1.93961e-06
-1.09543e-06
-1.41442e-06
-4.3039e-06
-8.4021e-06
-4.36368e-07
1.76568e-06
-6.4887e-07
1.51277e-06
-7.74691e-07
1.29382e-06
-8.69675e-07
1.12864e-06
-9.53857e-07
1.00303e-06
-1.02954e-06
8.99306e-07
-1.09867e-06
8.15077e-07
-1.16185e-06
7.46881e-07
-1.21837e-06
6.9179e-07
-1.26664e-06
6.48645e-07
-1.30486e-06
6.19466e-07
-1.33114e-06
6.09382e-07
-1.34511e-06
6.28092e-07
-1.34524e-06
6.80568e-07
-1.32475e-06
7.48456e-07
-1.23831e-06
7.26007e-07
-1.17822e-06
4.62047e-07
-9.68593e-07
-1.30505e-06
-9.10425e-07
-4.36207e-06
-9.31253e-06
-5.04794e-07
2.27047e-06
-5.84246e-07
1.59222e-06
-5.98879e-07
1.30846e-06
-6.17687e-07
1.14745e-06
-6.34372e-07
1.01971e-06
-6.42966e-07
9.07901e-07
-6.45512e-07
8.17623e-07
-6.44086e-07
7.45455e-07
-6.37957e-07
6.85661e-07
-6.23456e-07
6.34144e-07
-5.95795e-07
5.91805e-07
-5.46796e-07
5.60383e-07
-4.69381e-07
5.50677e-07
-3.48708e-07
5.59895e-07
-1.87923e-07
5.87671e-07
-1.19132e-08
5.49998e-07
3.96826e-07
5.33075e-08
1.35621e-07
-1.04385e-06
1.88127e-08
-4.24526e-06
-9.29372e-06
-3.42736e-07
2.61321e-06
-2.00011e-07
1.44949e-06
1.10073e-07
9.98372e-07
4.215e-07
8.36022e-07
7.17469e-07
7.23744e-07
9.91161e-07
6.34209e-07
1.24302e-06
5.65765e-07
1.47483e-06
5.13647e-07
1.68908e-06
4.71406e-07
1.89121e-06
4.32016e-07
2.0854e-06
3.97616e-07
2.28361e-06
3.6217e-07
2.49165e-06
3.42632e-07
2.73637e-06
3.15185e-07
3.03184e-06
2.92195e-07
3.37376e-06
2.08076e-07
3.55495e-06
-1.2788e-07
3.46728e-06
-9.56179e-07
2.02437e-06
-2.80235e-06
-7.26934e-06
2.61321e-06
4.0627e-06
5.06107e-06
5.8971e-06
6.62084e-06
7.25505e-06
7.82081e-06
8.33446e-06
8.80587e-06
9.23788e-06
9.6355e-06
9.99767e-06
1.03403e-05
1.06555e-05
1.09477e-05
1.11558e-05
1.10279e-05
1.00717e-05
7.26934e-06
)
;

boundaryField
{
    movingWall
    {
        type            calculated;
        value           uniform 0;
    }
    movingWallBottom
    {
        type            calculated;
        value           uniform 0;
    }
    fixedWalls
    {
        type            calculated;
        value           uniform 0;
    }
    frontAndBack
    {
        type            empty;
        value           nonuniform 0();
    }
}


// ************************************************************************* //
