/*--------------------------------*- C++ -*----------------------------------*\
| =========                 |                                                 |
| \\      /  F ield         | OpenFOAM: The Open Source CFD Toolbox           |
|  \\    /   O peration     | Version:  4.1                                   |
|   \\  /    A nd           | Web:      www.OpenFOAM.org                      |
|    \\/     M anipulation  |                                                 |
\*---------------------------------------------------------------------------*/
FoamFile
{
    version     2.0;
    format      ascii;
    class       volVectorField;
    location    "0.5";
    object      U;
}
// * * * * * * * * * * * * * * * * * * * * * * * * * * * * * * * * * * * * * //

dimensions      [0 1 -1 0 0 0 0];

internalField   nonuniform List<vector> 
400
(
(0.0523687 -0.100127 0)
(0.0608475 -0.0611141 0)
(0.0914301 -0.0385585 0)
(0.111586 -0.0278556 0)
(0.126591 -0.0217298 0)
(0.139422 -0.0177044 0)
(0.151077 -0.0148919 0)
(0.161801 -0.0128617 0)
(0.171633 -0.0113425 0)
(0.180753 -0.0100418 0)
(0.18896 -0.00894528 0)
(0.196785 -0.00770548 0)
(0.203337 -0.00685522 0)
(0.21024 -0.00562151 0)
(0.214899 -0.00499303 0)
(0.220463 -0.00379438 0)
(0.220672 -1.69542e-05 0)
(0.213702 0.00562559 0)
(0.173542 0.0202451 0)
(0.166544 0.11987 0)
(-0.00351852 -0.0252429 0)
(-0.00805209 -0.0126227 0)
(-0.000504981 -0.0120003 0)
(0.00511762 -0.0130418 0)
(0.011327 -0.0128432 0)
(0.0170705 -0.0121311 0)
(0.0223617 -0.0114044 0)
(0.0272215 -0.0107621 0)
(0.0316935 -0.0101494 0)
(0.0358913 -0.00952288 0)
(0.0398557 -0.00894309 0)
(0.0438667 -0.00846383 0)
(0.0477937 -0.00827892 0)
(0.052439 -0.00824811 0)
(0.0568144 -0.00825935 0)
(0.0634955 -0.00663668 0)
(0.0664093 0.00277267 0)
(0.0773989 0.0238617 0)
(0.0359132 0.0710158 0)
(0.078042 0.146203 0)
(-0.00770517 -0.0487771 0)
(-0.0117658 -0.0378421 0)
(-0.0117671 -0.0308122 0)
(-0.0121517 -0.0260049 0)
(-0.0126192 -0.0227131 0)
(-0.0128425 -0.0200397 0)
(-0.0129297 -0.0179176 0)
(-0.0129336 -0.0162222 0)
(-0.0128561 -0.01484 0)
(-0.0126444 -0.0137071 0)
(-0.0122181 -0.0128452 0)
(-0.0114372 -0.0123271 0)
(-0.0101864 -0.012367 0)
(-0.00823453 -0.0129925 0)
(-0.00558008 -0.0139504 0)
(-0.000339862 -0.0132521 0)
(-0.00153663 -0.00542071 0)
(0.0227001 0.0233256 0)
(-0.0241505 0.0943852 0)
(0.0354147 0.193651 0)
(-0.00618366 -0.028215 0)
(-0.0117723 -0.0273194 0)
(-0.0142607 -0.0243932 0)
(-0.0164786 -0.0215903 0)
(-0.0182983 -0.0192118 0)
(-0.0198885 -0.0172586 0)
(-0.0213277 -0.0156676 0)
(-0.0226499 -0.0143802 0)
(-0.0238468 -0.0133623 0)
(-0.0248902 -0.012606 0)
(-0.0257449 -0.0121579 0)
(-0.0263695 -0.0121314 0)
(-0.0267433 -0.0127173 0)
(-0.0268426 -0.014055 0)
(-0.0266376 -0.0157683 0)
(-0.026084 -0.0161554 0)
(-0.0269133 -0.010546 0)
(-0.014201 0.026162 0)
(-0.0359905 0.0937956 0)
(0.0131001 0.19089 0)
(-0.00391366 -0.023693 0)
(-0.00923796 -0.0236186 0)
(-0.0132131 -0.0215371 0)
(-0.0165449 -0.0192583 0)
(-0.0192558 -0.0172018 0)
(-0.0215553 -0.0154485 0)
(-0.0235861 -0.0140023 0)
(-0.0254169 -0.0128471 0)
(-0.0270927 -0.0119554 0)
(-0.02864 -0.011325 0)
(-0.0300837 -0.0109981 0)
(-0.0314728 -0.0110656 0)
(-0.032912 -0.0116579 0)
(-0.0345761 -0.0128547 0)
(-0.0366929 -0.0144305 0)
(-0.0397844 -0.015035 0)
(-0.0443646 -0.00915522 0)
(-0.0437366 0.0205426 0)
(-0.0429743 0.0863744 0)
(-0.00118937 0.164888 0)
(-0.00315208 -0.0175585 0)
(-0.00782477 -0.0186483 0)
(-0.0119755 -0.0175871 0)
(-0.0156531 -0.0160646 0)
(-0.0187878 -0.0145151 0)
(-0.0214923 -0.0131092 0)
(-0.023886 -0.0119095 0)
(-0.0260514 -0.0109303 0)
(-0.0280478 -0.0101687 0)
(-0.0299256 -0.00962664 0)
(-0.0317464 -0.00932486 0)
(-0.0336088 -0.00930426 0)
(-0.0356809 -0.00960848 0)
(-0.0382283 -0.0102112 0)
(-0.0416271 -0.0108264 0)
(-0.0464787 -0.0103924 0)
(-0.0531924 -0.00505123 0)
(-0.0576028 0.0165011 0)
(-0.0487091 0.0701215 0)
(-0.018465 0.121998 0)
(-0.00254699 -0.013016 0)
(-0.00672463 -0.0141063 0)
(-0.0108395 -0.013562 0)
(-0.0146255 -0.0125753 0)
(-0.017974 -0.011477 0)
(-0.0209254 -0.0104267 0)
(-0.0235619 -0.00950019 0)
(-0.0259553 -0.00872618 0)
(-0.0281678 -0.00811046 0)
(-0.0302577 -0.00765072 0)
(-0.032294 -0.007345 0)
(-0.0343741 -0.00718695 0)
(-0.0366456 -0.00714338 0)
(-0.039324 -0.00709148 0)
(-0.0426896 -0.00668197 0)
(-0.0470685 -0.00501969 0)
(-0.0525915 0.000281785 0)
(-0.0564989 0.0152491 0)
(-0.0457681 0.0497914 0)
(-0.0256066 0.0787605 0)
(-0.00222034 -0.00889874 0)
(-0.00603084 -0.00982316 0)
(-0.0100007 -0.00957562 0)
(-0.0137775 -0.00898028 0)
(-0.0172155 -0.00826341 0)
(-0.0203053 -0.00754672 0)
(-0.0230948 -0.00689489 0)
(-0.0256379 -0.00633681 0)
(-0.0279887 -0.00588011 0)
(-0.0302004 -0.00551916 0)
(-0.0323299 -0.00523898 0)
(-0.0344445 -0.00500847 0)
(-0.0366276 -0.00475966 0)
(-0.0389743 -0.00434019 0)
(-0.0415558 -0.0034265 0)
(-0.0443218 -0.00133658 0)
(-0.0468298 0.00333061 0)
(-0.0470671 0.0136011 0)
(-0.035763 0.0337854 0)
(-0.0205172 0.0466671 0)
(-0.00204404 -0.00521 0)
(-0.00562028 -0.00579406 0)
(-0.00946488 -0.00569334 0)
(-0.0132019 -0.00537817 0)
(-0.0166688 -0.00497654 0)
(-0.0198283 -0.00456194 0)
(-0.0227044 -0.00417624 0)
(-0.0253352 -0.00383948 0)
(-0.0277644 -0.00355716 0)
(-0.0300355 -0.00332377 0)
(-0.032188 -0.00312407 0)
(-0.0342556 -0.0029279 0)
(-0.0362586 -0.00267553 0)
(-0.0381889 -0.00224829 0)
(-0.0399411 -0.00143717 0)
(-0.0412486 0.000170045 0)
(-0.041351 0.00331455 0)
(-0.0384905 0.00930115 0)
(-0.0281898 0.019456 0)
(-0.0122986 0.0250216 0)
(-0.00196901 -0.00171523 0)
(-0.00543377 -0.0019142 0)
(-0.0092078 -0.00188818 0)
(-0.012916 -0.0017901 0)
(-0.0163886 -0.0016612 0)
(-0.0195761 -0.00152583 0)
(-0.0224906 -0.00139836 0)
(-0.0251612 -0.00128586 0)
(-0.0276252 -0.00119025 0)
(-0.0299189 -0.00110926 0)
(-0.0320708 -0.00103663 0)
(-0.0340939 -0.00096016 0)
(-0.0359712 -0.000855936 0)
(-0.0376496 -0.000677279 0)
(-0.0388787 -0.00037847 0)
(-0.0393816 0.000214661 0)
(-0.0382166 0.0013272 0)
(-0.0339366 0.00329389 0)
(-0.0240271 0.00633368 0)
(-0.00920425 0.00780496 0)
(-0.00196899 0.00171777 0)
(-0.00543375 0.00191556 0)
(-0.00920779 0.00188894 0)
(-0.012916 0.00179047 0)
(-0.0163887 0.00166125 0)
(-0.0195762 0.00152559 0)
(-0.0224907 0.00139787 0)
(-0.0251613 0.00128513 0)
(-0.0276253 0.00118929 0)
(-0.029919 0.00110807 0)
(-0.032071 0.00103519 0)
(-0.0340941 0.00095843 0)
(-0.0359714 0.000853939 0)
(-0.0376499 0.000675061 0)
(-0.038879 0.000376203 0)
(-0.0393818 -0.000216675 0)
(-0.0382166 -0.00132846 0)
(-0.0339364 -0.00329318 0)
(-0.024027 -0.00632962 0)
(-0.00920411 -0.00779901 0)
(-0.00204405 0.00521254 0)
(-0.0056203 0.00579545 0)
(-0.00946493 0.00569416 0)
(-0.013202 0.0053786 0)
(-0.016669 0.00497664 0)
(-0.0198285 0.00456175 0)
(-0.0227046 0.00417578 0)
(-0.0253355 0.00383878 0)
(-0.0277647 0.00355625 0)
(-0.0300358 0.00332265 0)
(-0.0321884 0.00312269 0)
(-0.0342561 0.00292625 0)
(-0.0362593 0.00267363 0)
(-0.0381898 0.00224618 0)
(-0.0399422 0.00143494 0)
(-0.0412496 -0.000172237 0)
(-0.0413516 -0.00331622 0)
(-0.0384913 -0.00930108 0)
(-0.0281912 -0.0194517 0)
(-0.012298 -0.0250162 0)
(-0.0022204 0.00890131 0)
(-0.00603102 0.00982458 0)
(-0.010001 0.00957649 0)
(-0.0137778 0.00898077 0)
(-0.0172158 0.00826355 0)
(-0.0203056 0.00754657 0)
(-0.0230952 0.00689447 0)
(-0.0256383 0.00633617 0)
(-0.0279891 0.00587928 0)
(-0.0302009 0.00551812 0)
(-0.0323305 0.00523772 0)
(-0.0344454 0.00500703 0)
(-0.0366287 0.00475804 0)
(-0.0389758 0.0043384 0)
(-0.0415578 0.00342453 0)
(-0.044324 0.00133441 0)
(-0.0468316 -0.00333289 0)
(-0.047069 -0.0136015 0)
(-0.0357649 -0.0337804 0)
(-0.020519 -0.0466637 0)
(-0.00254718 0.0130187 0)
(-0.0067251 0.0141078 0)
(-0.01084 0.013563 0)
(-0.014626 0.0125758 0)
(-0.0179745 0.0114771 0)
(-0.0209258 0.0104266 0)
(-0.0235623 0.00949981 0)
(-0.0259557 0.00872559 0)
(-0.0281681 0.00810969 0)
(-0.030258 0.00764978 0)
(-0.0322945 0.00734395 0)
(-0.0343749 0.00718585 0)
(-0.0366468 0.00714223 0)
(-0.0393256 0.00709026 0)
(-0.0426917 0.00668046 0)
(-0.0470707 0.00501728 0)
(-0.052592 -0.000285422 0)
(-0.0564967 -0.0152494 0)
(-0.0457692 -0.049784 0)
(-0.0256074 -0.0787592 0)
(-0.00315256 0.0175617 0)
(-0.00782563 0.0186501 0)
(-0.0119761 0.0175881 0)
(-0.0156536 0.0160651 0)
(-0.0187881 0.0145152 0)
(-0.0214923 0.013109 0)
(-0.0238859 0.011909 0)
(-0.0260511 0.0109297 0)
(-0.0280474 0.0101679 0)
(-0.0299252 0.00962578 0)
(-0.0317461 0.00932403 0)
(-0.0336087 0.0093035 0)
(-0.035681 0.00960781 0)
(-0.0382287 0.0102105 0)
(-0.0416278 0.0108251 0)
(-0.0464788 0.0103889 0)
(-0.0531895 0.00504532 0)
(-0.0575983 -0.0165007 0)
(-0.0487095 -0.0701116 0)
(-0.0184635 -0.121996 0)
(-0.00391444 0.0236969 0)
(-0.00923897 0.0236203 0)
(-0.0132134 0.0215377 0)
(-0.0165447 0.0192584 0)
(-0.019255 0.0172015 0)
(-0.0215542 0.015448 0)
(-0.0235847 0.0140016 0)
(-0.0254153 0.0128463 0)
(-0.0270909 0.0119544 0)
(-0.0286382 0.0113241 0)
(-0.0300819 0.0109973 0)
(-0.0314711 0.011065 0)
(-0.0329104 0.0116575 0)
(-0.0345746 0.012854 0)
(-0.0366915 0.0144287 0)
(-0.0397829 0.0150305 0)
(-0.0443617 0.00914913 0)
(-0.0437354 -0.0205406 0)
(-0.0429751 -0.0863647 0)
(-0.00118817 -0.164884 0)
(-0.00618453 0.02822 0)
(-0.0117721 0.0273214 0)
(-0.0142594 0.0243936 0)
(-0.0164767 0.02159 0)
(-0.018296 0.0192112 0)
(-0.019886 0.0172578 0)
(-0.0213249 0.0156666 0)
(-0.0226469 0.0143791 0)
(-0.0238436 0.0133612 0)
(-0.0248869 0.0126051 0)
(-0.0257414 0.0121571 0)
(-0.026366 0.0121308 0)
(-0.0267398 0.0127168 0)
(-0.0268392 0.0140545 0)
(-0.0266347 0.0157665 0)
(-0.0260822 0.0161519 0)
(-0.0269127 0.0105412 0)
(-0.014206 -0.0261593 0)
(-0.0359911 -0.0937885 0)
(0.0131001 -0.190886 0)
(-0.00770502 0.0487802 0)
(-0.0117639 0.0378407 0)
(-0.0117651 0.03081 0)
(-0.0121496 0.0260031 0)
(-0.0126166 0.0227113 0)
(-0.0128397 0.0200379 0)
(-0.0129267 0.0179158 0)
(-0.0129304 0.0162205 0)
(-0.0128529 0.0148385 0)
(-0.0126411 0.0137058 0)
(-0.0122148 0.0128441 0)
(-0.0114339 0.0123263 0)
(-0.0101832 0.0123666 0)
(-0.00823156 0.0129922 0)
(-0.00557776 0.0139498 0)
(-0.000339352 0.013251 0)
(-0.00153779 0.00542022 0)
(0.0226944 -0.0233233 0)
(-0.0241527 -0.0943824 0)
(0.0354142 -0.193649 0)
(-0.00351766 0.0252458 0)
(-0.00804853 0.012625 0)
(-0.000503068 0.0120012 0)
(0.00511947 0.0130419 0)
(0.0113283 0.0128431 0)
(0.0170713 0.0121308 0)
(0.022362 0.011404 0)
(0.0272213 0.0107616 0)
(0.0316928 0.0101489 0)
(0.0358902 0.0095225 0)
(0.0398541 0.00894282 0)
(0.0438647 0.00846375 0)
(0.0477914 0.008279 0)
(0.0524363 0.00824833 0)
(0.0568116 0.00825976 0)
(0.063492 0.00663699 0)
(0.0664052 -0.00277201 0)
(0.077395 -0.0238591 0)
(0.0359104 -0.0710141 0)
(0.0780417 -0.146202 0)
(0.0523693 0.100126 0)
(0.0608485 0.0611122 0)
(0.0914311 0.038557 0)
(0.111587 0.0278542 0)
(0.126591 0.0217285 0)
(0.139421 0.0177031 0)
(0.151076 0.0148905 0)
(0.161798 0.0128603 0)
(0.17163 0.0113413 0)
(0.180749 0.0100406 0)
(0.188955 0.00894427 0)
(0.19678 0.00770474 0)
(0.203332 0.00685465 0)
(0.210235 0.00562151 0)
(0.214895 0.00499295 0)
(0.220459 0.00379515 0)
(0.220668 1.7409e-05 0)
(0.213699 -0.00562505 0)
(0.173541 -0.0202447 0)
(0.166543 -0.119869 0)
)
;

boundaryField
{
    movingWall
    {
        type            fixedValue;
        value           uniform (1 0 0);
    }
    movingWallBottom
    {
        type            fixedValue;
        value           uniform (1 0 0);
    }
    fixedWalls
    {
        type            noSlip;
    }
    frontAndBack
    {
        type            empty;
    }
}


// ************************************************************************* //
