/*--------------------------------*- C++ -*----------------------------------*\
| =========                 |                                                 |
| \\      /  F ield         | OpenFOAM: The Open Source CFD Toolbox           |
|  \\    /   O peration     | Version:  4.1                                   |
|   \\  /    A nd           | Web:      www.OpenFOAM.org                      |
|    \\/     M anipulation  |                                                 |
\*---------------------------------------------------------------------------*/
FoamFile
{
    version     2.0;
    format      ascii;
    class       volScalarField;
    location    "5";
    object      epsilon;
}
// * * * * * * * * * * * * * * * * * * * * * * * * * * * * * * * * * * * * * //

dimensions      [0 2 -3 0 0 0 0];

internalField   nonuniform List<scalar> 
400
(
0.0398747
0.0689375
0.0896374
0.0998795
0.106855
0.112146
0.116574
0.120313
0.123551
0.126359
0.128856
0.131254
0.133594
0.136148
0.139336
0.142345
0.145995
0.151011
0.16774
0.146725
0.0101625
0.00822352
0.00868863
0.00940318
0.0102197
0.0111689
0.0123199
0.013743
0.0153152
0.0171051
0.018894
0.0209192
0.0226706
0.0248474
0.0263329
0.0303652
0.0355826
0.0480849
0.0742711
0.109286
0.0116409
0.00602025
0.00432687
0.0038112
0.00379323
0.00396765
0.00441637
0.00512895
0.00598007
0.00694631
0.0079069
0.00888113
0.00968086
0.0104328
0.0108694
0.011816
0.0134855
0.0195415
0.0367866
0.0807022
0.0126026
0.00528493
0.00365012
0.00325737
0.0033275
0.00362789
0.00418712
0.00486828
0.0055822
0.00625206
0.00678603
0.00713457
0.00725477
0.00723653
0.00708084
0.0071656
0.00783434
0.0118246
0.0247187
0.0659692
0.013337
0.00508713
0.00365335
0.00354541
0.00387605
0.00447059
0.00513816
0.0057968
0.00635002
0.00673102
0.00687155
0.00676764
0.00642757
0.00591913
0.00536425
0.00512103
0.00559028
0.00905478
0.0199079
0.057226
0.013688
0.00515214
0.00418604
0.00416411
0.00476035
0.00549721
0.00621094
0.00679525
0.00713812
0.00723283
0.00702429
0.00654378
0.00584594
0.00504673
0.00435626
0.00408929
0.00476417
0.00815633
0.0189331
0.0504574
0.0140554
0.00596731
0.00484882
0.00475865
0.00543922
0.00625733
0.00694084
0.00738539
0.00756006
0.00748079
0.00702302
0.00631761
0.00547255
0.00464251
0.00418012
0.00409776
0.00504346
0.00866869
0.0195705
0.044292
0.0142934
0.00666294
0.00517653
0.00502217
0.00568489
0.00650704
0.00710854
0.00740236
0.00747958
0.00723915
0.00669727
0.00602858
0.00535853
0.00493548
0.00479244
0.00506176
0.00656773
0.0106861
0.0213584
0.0376381
0.0143642
0.00740531
0.00515526
0.00456088
0.00455776
0.00504348
0.0053339
0.00552411
0.0055888
0.00559289
0.00556674
0.00556925
0.00574214
0.00608479
0.00675917
0.00802775
0.0104354
0.0148136
0.0216437
0.0295494
0.0143846
0.00778379
0.00493418
0.00382043
0.00352101
0.00347855
0.00359771
0.0038123
0.00410275
0.00448688
0.00497959
0.0056117
0.00643135
0.00749848
0.00893214
0.0108708
0.0134675
0.0165725
0.0180904
0.0166191
0.0143703
0.00777808
0.00493471
0.00382425
0.00352702
0.00348622
0.00361027
0.0038252
0.00411545
0.00449543
0.00498378
0.00560845
0.00642089
0.00747775
0.00890432
0.0108392
0.0134485
0.0166358
0.0182134
0.0169315
0.0143348
0.00738749
0.00513319
0.00453152
0.00452499
0.00501124
0.00531252
0.00551565
0.00558825
0.00559439
0.00555987
0.00555369
0.00569717
0.00601825
0.00665653
0.00789776
0.0102743
0.0146706
0.0216652
0.0298621
0.0142524
0.00663756
0.00514146
0.00497932
0.00562769
0.00644565
0.00704916
0.00734595
0.00742592
0.0071977
0.00666176
0.00599711
0.00532408
0.00489092
0.00474174
0.00499614
0.00648265
0.0105765
0.0212501
0.0377777
0.0140035
0.00594305
0.00481751
0.00472111
0.00539001
0.00620313
0.00688204
0.00732195
0.00749459
0.00741843
0.00696695
0.00626985
0.00543405
0.00461215
0.00415227
0.00407099
0.00501063
0.00861442
0.0194905
0.0443873
0.0136405
0.00513075
0.00416241
0.00413743
0.00472757
0.0054588
0.00616459
0.00674145
0.00708204
0.00717746
0.00697422
0.00650243
0.00581568
0.0050277
0.00434461
0.00407979
0.00475104
0.00812739
0.0188671
0.0505003
0.0132919
0.00507095
0.00363749
0.00352883
0.00385648
0.00444655
0.00510669
0.00575739
0.00630509
0.00668424
0.00682679
0.00672827
0.00639767
0.0058988
0.00535314
0.0051177
0.00558809
0.00904038
0.0198527
0.0572358
0.0125613
0.00526897
0.00363842
0.00324821
0.00331688
0.00361277
0.00416429
0.00483657
0.00554238
0.00620688
0.00673872
0.00708946
0.00721588
0.00720351
0.00705834
0.00715011
0.00782403
0.0118123
0.02471
0.065948
0.0115987
0.00600225
0.00431669
0.0038039
0.0037841
0.00395489
0.00439514
0.00509683
0.0059358
0.00689183
0.00784386
0.00881445
0.00961337
0.0103704
0.0108149
0.0117762
0.0134524
0.0195112
0.0367581
0.0806712
0.0101323
0.00820718
0.00867842
0.00939238
0.0102011
0.0111405
0.0122765
0.0136844
0.0152379
0.0170127
0.0187841
0.020799
0.0225415
0.0247101
0.0262095
0.0302661
0.0354921
0.0480084
0.0742171
0.109208
0.0398739
0.0689862
0.0896848
0.0999095
0.106841
0.11209
0.116472
0.120178
0.123379
0.126168
0.128639
0.13103
0.133358
0.135916
0.139106
0.142119
0.145781
0.150806
0.167564
0.146605
)
;

boundaryField
{
    movingWall
    {
        Cmu             0.09;
        kappa           0.41;
        E               9.8;
        type            epsilonWallFunction;
        value           nonuniform List<scalar> 
20
(
0.0398739
0.0689862
0.0896848
0.0999095
0.106841
0.11209
0.116472
0.120178
0.123379
0.126168
0.128639
0.13103
0.133358
0.135916
0.139106
0.142119
0.145781
0.150806
0.167564
0.146605
)
;
    }
    movingWallBottom
    {
        Cmu             0.09;
        kappa           0.41;
        E               9.8;
        type            epsilonWallFunction;
        value           nonuniform List<scalar> 
20
(
0.0398747
0.0689375
0.0896374
0.0998795
0.106855
0.112146
0.116574
0.120313
0.123551
0.126359
0.128856
0.131254
0.133594
0.136148
0.139336
0.142345
0.145995
0.151011
0.16774
0.146725
)
;
    }
    fixedWalls
    {
        Cmu             0.09;
        kappa           0.41;
        E               9.8;
        type            epsilonWallFunction;
        value           nonuniform List<scalar> 
40
(
0.0398747
0.0101625
0.0116409
0.0126026
0.013337
0.013688
0.0140554
0.0142934
0.0143642
0.0143846
0.0143703
0.0143348
0.0142524
0.0140035
0.0136405
0.0132919
0.0125613
0.0115987
0.0101323
0.0398739
0.146725
0.109286
0.0807022
0.0659692
0.057226
0.0504574
0.044292
0.0376381
0.0295494
0.0166191
0.0169315
0.0298621
0.0377777
0.0443873
0.0505003
0.0572358
0.065948
0.0806712
0.109208
0.146605
)
;
    }
    frontAndBack
    {
        type            empty;
    }
}


// ************************************************************************* //
