/*--------------------------------*- C++ -*----------------------------------*\
| =========                 |                                                 |
| \\      /  F ield         | OpenFOAM: The Open Source CFD Toolbox           |
|  \\    /   O peration     | Version:  4.1                                   |
|   \\  /    A nd           | Web:      www.OpenFOAM.org                      |
|    \\/     M anipulation  |                                                 |
\*---------------------------------------------------------------------------*/
FoamFile
{
    version     2.0;
    format      ascii;
    class       volScalarField;
    location    "5";
    object      k;
}
// * * * * * * * * * * * * * * * * * * * * * * * * * * * * * * * * * * * * * //

dimensions      [0 2 -2 0 0 0 0];

internalField   nonuniform List<scalar> 
400
(
0.00395526
0.00569762
0.00678767
0.00729556
0.00763151
0.00788143
0.00808754
0.00825952
0.00840701
0.0085339
0.0086459
0.00875278
0.00885646
0.00896894
0.00910838
0.00923902
0.00939623
0.00961017
0.0103073
0.00942724
0.00158985
0.00169418
0.00194365
0.00209305
0.00218922
0.00229476
0.00243139
0.00260661
0.00280974
0.00304194
0.00327954
0.00352851
0.00373969
0.00395889
0.00406488
0.00427989
0.00446459
0.00501115
0.0063984
0.00774617
0.00174051
0.00167454
0.00176871
0.00184851
0.00190761
0.00201973
0.00219336
0.00241994
0.0026784
0.0029477
0.00319226
0.00339134
0.00352069
0.00354041
0.00348647
0.00337234
0.00314743
0.00333249
0.0042781
0.00632838
0.00183516
0.00169278
0.00175293
0.0018492
0.00203432
0.00229957
0.00260706
0.00292518
0.00321804
0.00345522
0.00360828
0.00365657
0.0036148
0.0034832
0.0032283
0.00294604
0.00262793
0.00274582
0.00347453
0.00553255
0.00190588
0.00191431
0.00196992
0.00209525
0.00235385
0.0026833
0.00303486
0.00336276
0.00361653
0.00377297
0.00381504
0.00374722
0.00355823
0.00326981
0.00289959
0.00254856
0.00228012
0.00245858
0.00316517
0.00503217
0.00193924
0.00210522
0.00212728
0.00226706
0.00259643
0.00297026
0.00331766
0.00359816
0.00378984
0.00386149
0.00380109
0.00360596
0.00329706
0.00290522
0.00248276
0.00213836
0.00198862
0.00219909
0.00295567
0.00462707
0.00197389
0.00234632
0.0022774
0.00234637
0.00269997
0.00308136
0.00340402
0.00361367
0.0036951
0.00367328
0.00350467
0.00322139
0.00285007
0.00242993
0.00201316
0.00180529
0.00175391
0.00208016
0.00290722
0.00424199
0.00199618
0.00257749
0.00233751
0.00233134
0.00259329
0.00288891
0.0030924
0.00318353
0.00319762
0.00306883
0.00283558
0.00253715
0.00221385
0.00191886
0.00177146
0.00171878
0.00177775
0.0021644
0.00294346
0.0038057
0.00200281
0.00275803
0.00210747
0.0019218
0.00192219
0.00204165
0.00209275
0.00210779
0.0020595
0.00196104
0.0018638
0.00176982
0.00172305
0.00170536
0.00172936
0.0018356
0.00205595
0.00247424
0.00292412
0.00323873
0.00200473
0.00290303
0.00198178
0.0015784
0.00143504
0.001383
0.00136271
0.00135839
0.00137487
0.00140926
0.00146531
0.00154059
0.00164291
0.00176863
0.0019337
0.00214327
0.00238606
0.00257494
0.00264474
0.00220668
0.0020034
0.00290078
0.0019822
0.00158044
0.00143852
0.00138785
0.00136842
0.00136449
0.0013813
0.00141375
0.00146889
0.00154178
0.00164299
0.00176636
0.0019301
0.00213948
0.00238492
0.00258151
0.00265659
0.0022343
0.00200008
0.0027521
0.00209996
0.00191242
0.00191178
0.00203714
0.00209262
0.00211083
0.00207308
0.00197424
0.00187848
0.00177866
0.00172771
0.00170718
0.00172133
0.00182601
0.00203785
0.00246184
0.00292398
0.00326158
0.00199236
0.0025692
0.00232462
0.00231601
0.00257536
0.00287343
0.00308228
0.00317806
0.00319561
0.00307555
0.00284669
0.00255047
0.00222675
0.00192664
0.0017738
0.00171893
0.00177445
0.00215785
0.00293857
0.00381511
0.00196902
0.00233762
0.00226526
0.00233158
0.00268322
0.00306467
0.00338822
0.00360007
0.00368334
0.00366597
0.00350138
0.00322203
0.00285445
0.00243701
0.00202024
0.00180935
0.00175617
0.00207819
0.00290264
0.00424808
0.00193474
0.00209704
0.0021165
0.00225372
0.00258166
0.00295503
0.00330211
0.00358262
0.0037753
0.00384938
0.00379239
0.00360119
0.00329649
0.00290826
0.0024886
0.00214553
0.00199532
0.00220357
0.00295412
0.00462969
0.00190158
0.00190747
0.00196095
0.00208487
0.00234263
0.00267098
0.00302102
0.00334775
0.00360167
0.00375933
0.00380364
0.00373873
0.00355348
0.00326891
0.00290145
0.00255248
0.00228317
0.00245819
0.00316113
0.00503274
0.00183116
0.00168688
0.00174653
0.00184212
0.00202584
0.00228947
0.00259504
0.00291143
0.00320331
0.00344052
0.00359471
0.00364522
0.00360522
0.0034769
0.00322452
0.00294503
0.00262737
0.00274472
0.00347242
0.00553136
0.00173631
0.00166967
0.00176342
0.00184308
0.00190243
0.00201328
0.00218454
0.00240838
0.00266423
0.00293177
0.00317541
0.003375
0.00350516
0.00352766
0.00347517
0.00336379
0.00314088
0.00332628
0.00427397
0.00632675
0.0015867
0.00169042
0.00193972
0.00208895
0.00218451
0.00228899
0.00242379
0.00259687
0.00279745
0.0030274
0.00326255
0.00351019
0.00371992
0.003939
0.00404594
0.00426301
0.00445003
0.00500047
0.00639386
0.00774247
0.00395521
0.00570031
0.00679008
0.00729703
0.00763083
0.00787882
0.0080828
0.00825333
0.00839923
0.00852528
0.00863621
0.00874284
0.00884603
0.00895877
0.00909835
0.00922923
0.00938702
0.00960149
0.0103001
0.00942209
)
;

boundaryField
{
    movingWall
    {
        type            kqRWallFunction;
        value           nonuniform List<scalar> 
20
(
0.00395521
0.00570031
0.00679008
0.00729703
0.00763083
0.00787882
0.0080828
0.00825333
0.00839923
0.00852528
0.00863621
0.00874284
0.00884603
0.00895877
0.00909835
0.00922923
0.00938702
0.00960149
0.0103001
0.00942209
)
;
    }
    movingWallBottom
    {
        type            kqRWallFunction;
        value           nonuniform List<scalar> 
20
(
0.00395526
0.00569762
0.00678767
0.00729556
0.00763151
0.00788143
0.00808754
0.00825952
0.00840701
0.0085339
0.0086459
0.00875278
0.00885646
0.00896894
0.00910838
0.00923902
0.00939623
0.00961017
0.0103073
0.00942724
)
;
    }
    fixedWalls
    {
        type            kqRWallFunction;
        value           nonuniform List<scalar> 
40
(
0.00395526
0.00158985
0.00174051
0.00183516
0.00190588
0.00193924
0.00197389
0.00199618
0.00200281
0.00200473
0.0020034
0.00200008
0.00199236
0.00196902
0.00193474
0.00190158
0.00183116
0.00173631
0.0015867
0.00395521
0.00942724
0.00774617
0.00632838
0.00553255
0.00503217
0.00462707
0.00424199
0.0038057
0.00323873
0.00220668
0.0022343
0.00326158
0.00381511
0.00424808
0.00462969
0.00503274
0.00553136
0.00632675
0.00774247
0.00942209
)
;
    }
    frontAndBack
    {
        type            empty;
    }
}


// ************************************************************************* //
