/*--------------------------------*- C++ -*----------------------------------*\
| =========                 |                                                 |
| \\      /  F ield         | OpenFOAM: The Open Source CFD Toolbox           |
|  \\    /   O peration     | Version:  4.1                                   |
|   \\  /    A nd           | Web:      www.OpenFOAM.org                      |
|    \\/     M anipulation  |                                                 |
\*---------------------------------------------------------------------------*/
FoamFile
{
    version     2.0;
    format      ascii;
    class       volScalarField;
    location    "5";
    object      nut;
}
// * * * * * * * * * * * * * * * * * * * * * * * * * * * * * * * * * * * * * //

dimensions      [0 2 -1 0 0 0 0];

internalField   nonuniform List<scalar> 
400
(
3.53098e-05
4.23813e-05
4.62589e-05
4.79605e-05
4.90533e-05
4.98503e-05
5.04979e-05
5.10317e-05
5.1485e-05
5.18716e-05
5.22106e-05
5.25318e-05
5.28418e-05
5.31758e-05
5.35872e-05
5.39698e-05
5.44266e-05
5.50424e-05
5.70028e-05
5.45138e-05
2.23849e-05
3.14124e-05
3.91317e-05
4.19303e-05
4.22067e-05
4.24332e-05
4.31862e-05
4.44953e-05
4.6393e-05
4.86878e-05
5.12323e-05
5.35648e-05
5.55203e-05
5.67686e-05
5.64729e-05
5.42915e-05
5.04159e-05
4.70011e-05
4.96096e-05
4.94143e-05
2.34212e-05
4.19196e-05
6.50699e-05
8.06908e-05
8.63406e-05
9.2533e-05
9.8039e-05
0.00010276
0.000107966
0.000112578
0.000115993
0.000116551
0.000115235
0.000108131
0.000100649
8.66227e-05
6.61132e-05
5.11472e-05
4.4777e-05
4.46624e-05
2.40509e-05
4.87983e-05
7.57643e-05
9.44809e-05
0.000111935
0.000131184
0.000146093
0.000158187
0.000166963
0.000171859
0.000172674
0.000168664
0.000162102
0.000150893
0.000132466
0.00010901
7.93356e-05
5.7385e-05
4.3955e-05
4.17592e-05
2.45118e-05
6.48329e-05
9.55983e-05
0.000111442
0.000128651
0.000144949
0.000161329
0.000175568
0.000185375
0.000190339
0.000190628
0.000186734
0.000177282
0.000162566
0.000141061
0.00011415
8.36997e-05
6.00803e-05
4.5291e-05
3.98254e-05
2.47266e-05
7.74191e-05
9.72943e-05
0.000111083
0.000127455
0.000144441
0.000159496
0.000171474
0.000181093
0.000185543
0.000185121
0.000178836
0.000167356
0.000150519
0.00012735
0.000100637
7.47064e-05
5.33624e-05
4.15273e-05
3.81883e-05
2.49485e-05
8.30307e-05
9.62689e-05
0.000104124
0.000120622
0.000136565
0.00015025
0.000159136
0.000162543
0.000162331
0.000157403
0.000147835
0.000133587
0.000114467
8.72592e-05
7.158e-05
5.48944e-05
4.49243e-05
3.88686e-05
3.65642e-05
2.50903e-05
8.97371e-05
9.49974e-05
9.7401e-05
0.000106469
0.000115432
0.000121075
0.000123223
0.000123033
0.000117085
0.000108051
9.60992e-05
8.23177e-05
6.71425e-05
5.89317e-05
5.25267e-05
4.33081e-05
3.94547e-05
3.65082e-05
3.46324e-05
2.51328e-05
9.24482e-05
7.75383e-05
7.28801e-05
7.29596e-05
7.43832e-05
7.38982e-05
7.23827e-05
6.83039e-05
6.18841e-05
5.61615e-05
5.0618e-05
4.65334e-05
4.3016e-05
3.98215e-05
3.77752e-05
3.64553e-05
3.71935e-05
3.5555e-05
3.1948e-05
2.51453e-05
9.74439e-05
7.16374e-05
5.86897e-05
5.26381e-05
4.9487e-05
4.6454e-05
4.35616e-05
4.14656e-05
3.98363e-05
3.88067e-05
3.80647e-05
3.77716e-05
3.7544e-05
3.76759e-05
3.80306e-05
3.80466e-05
3.60073e-05
3.47986e-05
2.63703e-05
2.5137e-05
9.73641e-05
7.16597e-05
5.8783e-05
5.28038e-05
4.97248e-05
4.66812e-05
4.38055e-05
4.17256e-05
4.00145e-05
3.89641e-05
3.81455e-05
3.7837e-05
3.7552e-05
3.76533e-05
3.80069e-05
3.80643e-05
3.60536e-05
3.48739e-05
2.65357e-05
2.51157e-05
9.22729e-05
7.73173e-05
7.26383e-05
7.26941e-05
7.45313e-05
7.4186e-05
7.27033e-05
6.92147e-05
6.27031e-05
5.71202e-05
5.12682e-05
4.71549e-05
4.35846e-05
4.0061e-05
3.79967e-05
3.63776e-05
3.71805e-05
3.55163e-05
3.2061e-05
2.50663e-05
8.95017e-05
9.45933e-05
9.69513e-05
0.000106069
0.000115286
0.000121297
0.000123742
0.000123766
0.000118276
0.00010948
9.76206e-05
8.38189e-05
6.83054e-05
5.97192e-05
5.32261e-05
4.37137e-05
3.96226e-05
3.65725e-05
3.46754e-05
2.49176e-05
8.27524e-05
9.58643e-05
0.000103633
0.000120217
0.000136269
0.00015013
0.000159308
0.000162921
0.000163046
0.000158372
0.00014902
0.000134947
0.000115892
8.84636e-05
7.23751e-05
5.53965e-05
4.51217e-05
3.89051e-05
3.65906e-05
2.46978e-05
7.71396e-05
9.68576e-05
0.000110487
0.000126883
0.000143969
0.000159192
0.000171352
0.000181129
0.000185803
0.000185597
0.000179498
0.000168169
0.000151404
0.000128293
0.000101549
7.5419e-05
5.37707e-05
4.16287e-05
3.81991e-05
2.44841e-05
6.45755e-05
9.51423e-05
0.000110859
0.000128073
0.000144398
0.000160846
0.000175195
0.000185165
0.000190289
0.000190733
0.000186977
0.000177635
0.000163037
0.000141535
0.000114576
8.39565e-05
6.01573e-05
4.5301e-05
3.98276e-05
2.40248e-05
4.86052e-05
7.54542e-05
9.40227e-05
0.000111359
0.000130578
0.000145542
0.000157731
0.000166626
0.000171639
0.000172581
0.000168685
0.000162112
0.000151036
0.000132577
0.000109171
7.94061e-05
5.73993e-05
4.39173e-05
4.17547e-05
2.3393e-05
4.18011e-05
6.48342e-05
8.03717e-05
8.60789e-05
9.22391e-05
9.77214e-05
0.000102422
0.000107623
0.000112245
0.000115694
0.000116304
0.000115023
0.000107999
0.000100502
8.64756e-05
6.60005e-05
5.1036e-05
4.47252e-05
4.46566e-05
2.23627e-05
3.13357e-05
3.90193e-05
4.18142e-05
4.21021e-05
4.23278e-05
4.30684e-05
4.43525e-05
4.62213e-05
4.84852e-05
5.09995e-05
5.33166e-05
5.52493e-05
5.6512e-05
5.62112e-05
5.40405e-05
5.02153e-05
4.68756e-05
4.95752e-05
4.94024e-05
3.53096e-05
4.23913e-05
4.62671e-05
4.79653e-05
4.90512e-05
4.98421e-05
5.04832e-05
5.10126e-05
5.14612e-05
5.18454e-05
5.21813e-05
5.2502e-05
5.28106e-05
5.31456e-05
5.35577e-05
5.39412e-05
5.43999e-05
5.50175e-05
5.69828e-05
5.44989e-05
)
;

boundaryField
{
    movingWall
    {
        type            nutkWallFunction;
        Cmu             0.09;
        kappa           0.41;
        E               9.8;
        value           nonuniform List<scalar> 
20
(
0
0
0
1.13983e-07
2.94175e-07
4.25116e-07
5.31053e-07
6.18437e-07
6.92374e-07
7.5566e-07
8.10912e-07
8.63636e-07
9.14305e-07
9.69276e-07
1.03679e-06
1.09955e-06
1.17454e-06
1.27531e-06
1.59484e-06
1.19111e-06
)
;
    }
    movingWallBottom
    {
        type            nutkWallFunction;
        Cmu             0.09;
        kappa           0.41;
        E               9.8;
        value           nonuniform List<scalar> 
20
(
0
0
0
1.13182e-07
2.94538e-07
4.26481e-07
5.33493e-07
6.21586e-07
6.96298e-07
7.59967e-07
8.15715e-07
8.6853e-07
9.19409e-07
9.74219e-07
1.04162e-06
1.10422e-06
1.1789e-06
1.27936e-06
1.59807e-06
1.19354e-06
)
;
    }
    fixedWalls
    {
        type            nutkWallFunction;
        Cmu             0.09;
        kappa           0.41;
        E               9.8;
        value           nonuniform List<scalar> 
40
(
0
0
0
0
0
0
0
0
0
0
0
0
0
0
0
0
0
0
0
0
1.19354e-06
3.55378e-07
0
0
0
0
0
0
0
0
0
0
0
0
0
0
0
0
3.53424e-07
1.19111e-06
)
;
    }
    frontAndBack
    {
        type            empty;
    }
}


// ************************************************************************* //
