/*--------------------------------*- C++ -*----------------------------------*\
| =========                 |                                                 |
| \\      /  F ield         | OpenFOAM: The Open Source CFD Toolbox           |
|  \\    /   O peration     | Version:  4.1                                   |
|   \\  /    A nd           | Web:      www.OpenFOAM.org                      |
|    \\/     M anipulation  |                                                 |
\*---------------------------------------------------------------------------*/
FoamFile
{
    version     2.0;
    format      ascii;
    class       volScalarField;
    location    "5";
    object      p;
}
// * * * * * * * * * * * * * * * * * * * * * * * * * * * * * * * * * * * * * //

dimensions      [0 2 -2 0 0 0 0];

internalField   nonuniform List<scalar> 
400
(
-1.9025e-07
0.0003102
-0.00400074
-0.00818502
-0.0118129
-0.0148949
-0.0174588
-0.0195141
-0.0210921
-0.0222443
-0.0230228
-0.0234404
-0.0234508
-0.0229321
-0.0216613
-0.0192049
-0.014164
-0.00542811
0.00805008
0.0288862
-0.00614551
-0.00575807
-0.00779805
-0.0106404
-0.013661
-0.0164281
-0.0187563
-0.0206068
-0.0220195
-0.0230565
-0.023776
-0.0241933
-0.0242855
-0.0239362
-0.0228991
-0.0207989
-0.017309
-0.0114031
-0.0029154
0.0161685
-0.00720308
-0.00778737
-0.00973801
-0.0123598
-0.0150918
-0.0175379
-0.0195491
-0.0211304
-0.0223463
-0.0232541
-0.0238965
-0.0242706
-0.0243691
-0.0240953
-0.0234183
-0.0219378
-0.0196295
-0.0157303
-0.0116609
-0.000523405
-0.00878456
-0.00982689
-0.011814
-0.0143417
-0.0168074
-0.0189269
-0.0206247
-0.0219383
-0.0229389
-0.0236829
-0.0242078
-0.0245247
-0.0246244
-0.0244312
-0.0238991
-0.0228195
-0.0212682
-0.0183318
-0.0167687
-0.0102498
-0.00935481
-0.010797
-0.0128683
-0.0153661
-0.0177156
-0.0196924
-0.0212463
-0.0224211
-0.023292
-0.0239254
-0.0243651
-0.0246281
-0.0247058
-0.0245443
-0.0240879
-0.0232202
-0.0220734
-0.019378
-0.0183545
-0.0132845
-0.00856769
-0.0104635
-0.0127528
-0.015397
-0.0178292
-0.0198485
-0.0214173
-0.0225815
-0.0234184
-0.0240011
-0.0243841
-0.0245901
-0.0246106
-0.0243992
-0.0238907
-0.0230061
-0.0216993
-0.0190782
-0.0168232
-0.0118695
-0.00649274
-0.00872046
-0.0113701
-0.0143318
-0.0170713
-0.0193383
-0.0210826
-0.0223554
-0.0232463
-0.0238329
-0.0241777
-0.0243137
-0.0242273
-0.0238759
-0.0232027
-0.0220587
-0.0201211
-0.0168511
-0.0128339
-0.00756249
-0.00340019
-0.00597247
-0.00901318
-0.0123981
-0.015583
-0.0182373
-0.0202788
-0.0217504
-0.0227512
-0.0233695
-0.0236794
-0.023718
-0.0234793
-0.022926
-0.0219396
-0.0202068
-0.0172052
-0.0125381
-0.00660647
-0.00114845
-0.000184285
-0.00292617
-0.00625772
-0.0100152
-0.0136336
-0.0167175
-0.0191254
-0.0208599
-0.0220198
-0.0227086
-0.0230068
-0.0229557
-0.0225638
-0.0217528
-0.020261
-0.0176021
-0.0131834
-0.00671934
0.0012858
0.00587818
0.00194707
-0.00087749
-0.00436348
-0.00837101
-0.0122629
-0.0155696
-0.0181749
-0.0200888
-0.0213914
-0.0221656
-0.0224738
-0.0223537
-0.021826
-0.0207505
-0.0187607
-0.0152282
-0.00954101
-0.00167569
0.00688045
0.0110669
0.00193599
-0.000883592
-0.00436667
-0.00837488
-0.0122715
-0.0155819
-0.0181908
-0.020108
-0.0214131
-0.0221889
-0.0224999
-0.0223862
-0.0218598
-0.0207859
-0.0188017
-0.0152806
-0.00961149
-0.00176905
0.00676904
0.0109595
-0.000199159
-0.00293032
-0.00625592
-0.0100159
-0.0136431
-0.0167381
-0.0191597
-0.0209072
-0.0220784
-0.022775
-0.0230774
-0.0230274
-0.0226367
-0.0218279
-0.0203438
-0.0177027
-0.0133159
-0.0068991
0.00104575
0.00564829
-0.0034048
-0.00596485
-0.00900043
-0.0123905
-0.0155889
-0.0182614
-0.0203218
-0.0218093
-0.0228236
-0.0234515
-0.0237668
-0.0238074
-0.0235681
-0.0230126
-0.0220253
-0.0203008
-0.0173236
-0.0126979
-0.00682966
-0.00138869
-0.00648213
-0.00870003
-0.0113479
-0.0143187
-0.0170754
-0.0193631
-0.0211275
-0.0224172
-0.023321
-0.0239163
-0.0242656
-0.0244018
-0.024313
-0.0239577
-0.0232798
-0.0221356
-0.0202101
-0.0169624
-0.0129939
-0.00775432
-0.00854342
-0.0104315
-0.012722
-0.0153773
-0.0178285
-0.0198694
-0.021459
-0.0226408
-0.0234908
-0.0240819
-0.0244687
-0.0246744
-0.0246916
-0.0244744
-0.0239589
-0.0230677
-0.0217614
-0.0191418
-0.0169246
-0.0119951
-0.00932052
-0.0107566
-0.0128298
-0.0153382
-0.0177063
-0.0197051
-0.0212806
-0.0224736
-0.0233582
-0.0240002
-0.0244439
-0.0247065
-0.0247803
-0.0246118
-0.0241465
-0.0232691
-0.0221113
-0.0194096
-0.0184118
-0.0133438
-0.00874595
-0.00978225
-0.0117688
-0.0143051
-0.016788
-0.018929
-0.0206484
-0.0219809
-0.0229958
-0.0237493
-0.024279
-0.0245961
-0.024692
-0.0244906
-0.0239475
-0.0228539
-0.0212874
-0.018342
-0.016778
-0.0102616
-0.0071668
-0.00774331
-0.00969036
-0.0123171
-0.0150625
-0.0175281
-0.0195603
-0.0211609
-0.0223922
-0.0233106
-0.0239588
-0.0243338
-0.0244289
-0.0241481
-0.0234582
-0.0219607
-0.0196342
-0.0157202
-0.0116371
-0.000498522
-0.00611736
-0.00572101
-0.00775108
-0.0105925
-0.0136225
-0.0164064
-0.0187547
-0.0206253
-0.0220552
-0.0231049
-0.0238318
-0.024251
-0.0243395
-0.0239806
-0.0229301
-0.0208122
-0.0173009
-0.0113748
-0.00286765
0.016218
1.89351e-05
0.00033732
-0.0039596
-0.00814004
-0.0117748
-0.0148719
-0.0174554
-0.0195309
-0.0211261
-0.022291
-0.0230766
-0.0234958
-0.0235025
-0.0229752
-0.0216903
-0.0192128
-0.0141463
-0.00538769
0.00810767
0.028949
)
;

boundaryField
{
    movingWall
    {
        type            zeroGradient;
    }
    movingWallBottom
    {
        type            zeroGradient;
    }
    fixedWalls
    {
        type            zeroGradient;
    }
    frontAndBack
    {
        type            empty;
    }
}


// ************************************************************************* //
