/*--------------------------------*- C++ -*----------------------------------*\
| =========                 |                                                 |
| \\      /  F ield         | OpenFOAM: The Open Source CFD Toolbox           |
|  \\    /   O peration     | Version:  4.1                                   |
|   \\  /    A nd           | Web:      www.OpenFOAM.org                      |
|    \\/     M anipulation  |                                                 |
\*---------------------------------------------------------------------------*/
FoamFile
{
    version     2.0;
    format      ascii;
    class       surfaceScalarField;
    location    "5";
    object      phi;
}
// * * * * * * * * * * * * * * * * * * * * * * * * * * * * * * * * * * * * * //

dimensions      [0 3 -1 0 0 0 0];

internalField   nonuniform List<scalar> 
760
(
3.2753e-06
-3.27529e-06
5.56149e-06
-2.28618e-06
7.33816e-06
-1.77667e-06
8.82345e-06
-1.48529e-06
1.0056e-05
-1.23258e-06
1.10588e-05
-1.0028e-06
1.1869e-05
-8.10162e-07
1.25264e-05
-6.57432e-07
1.30675e-05
-5.41094e-07
1.35135e-05
-4.46022e-07
1.38808e-05
-3.67234e-07
1.41663e-05
-2.85534e-07
1.43741e-05
-2.07743e-07
1.44629e-05
-8.88538e-08
1.44388e-05
2.41635e-08
1.40538e-05
3.84975e-07
1.3288e-05
7.6573e-07
1.13307e-05
1.95738e-06
7.77692e-06
3.55374e-06
7.77692e-06
1.11927e-06
-4.39455e-06
2.70346e-06
-3.87037e-06
4.15866e-06
-3.23187e-06
5.30138e-06
-2.62801e-06
6.15306e-06
-2.08426e-06
6.77823e-06
-1.62798e-06
7.23136e-06
-1.26329e-06
7.55383e-06
-9.79902e-07
7.77911e-06
-7.66378e-07
7.93113e-06
-5.98036e-07
8.02856e-06
-4.64665e-07
8.07691e-06
-3.33886e-07
8.07195e-06
-2.02783e-07
7.95822e-06
2.48727e-08
7.74737e-06
2.35016e-07
7.37408e-06
7.5827e-07
6.68344e-06
1.45636e-06
5.46109e-06
3.17974e-06
2.9876e-06
6.02723e-06
1.07645e-05
1.02049e-06
-5.41505e-06
2.24174e-06
-5.09162e-06
3.25332e-06
-4.24346e-06
3.99993e-06
-3.37462e-06
4.51848e-06
-2.60281e-06
4.857e-06
-1.96649e-06
5.05787e-06
-1.46416e-06
5.15958e-06
-1.08162e-06
5.18995e-06
-7.96746e-07
5.17261e-06
-5.80689e-07
5.1152e-06
-4.07263e-07
5.0263e-06
-2.44982e-07
4.89428e-06
-7.07643e-08
4.73186e-06
1.87299e-07
4.43145e-06
5.3542e-07
4.02873e-06
1.16099e-06
3.33944e-06
2.14565e-06
2.48126e-06
4.03792e-06
1.12851e-06
7.37998e-06
1.1893e-05
7.52403e-07
-6.16745e-06
1.44791e-06
-5.78712e-06
2.04778e-06
-4.84333e-06
2.50144e-06
-3.82828e-06
2.80903e-06
-2.9104e-06
2.99551e-06
-2.15298e-06
3.09321e-06
-1.56186e-06
3.12896e-06
-1.11736e-06
3.12094e-06
-7.88735e-07
3.08182e-06
-5.41565e-07
3.01618e-06
-3.41618e-07
2.92406e-06
-1.52867e-07
2.79297e-06
6.03231e-08
2.62434e-06
3.55937e-07
2.38197e-06
7.77787e-07
2.07308e-06
1.46988e-06
1.59355e-06
2.62519e-06
1.05482e-06
4.57665e-06
4.25056e-07
8.00974e-06
1.23181e-05
3.64009e-07
-6.53146e-06
5.6914e-07
-5.99225e-06
7.6939e-07
-5.04358e-06
9.34742e-07
-3.99363e-06
1.04771e-06
-3.02337e-06
1.11355e-06
-2.21882e-06
1.14388e-06
-1.59219e-06
1.14902e-06
-1.1225e-06
1.13582e-06
-7.75533e-07
1.1083e-06
-5.14049e-07
1.06669e-06
-3.00006e-07
1.00917e-06
-9.5352e-08
9.27945e-07
1.41553e-07
8.21291e-07
4.62589e-07
6.76577e-07
9.22502e-07
4.94469e-07
1.65198e-06
3.21352e-07
2.79831e-06
-9.02698e-08
4.98827e-06
-1.75573e-07
8.09505e-06
1.21425e-05
-2.3217e-07
-6.29929e-06
-4.38822e-07
-5.7856e-06
-5.90024e-07
-4.89238e-06
-6.98759e-07
-3.8849e-06
-7.82612e-07
-2.93951e-06
-8.44939e-07
-2.15649e-06
-8.88198e-07
-1.54893e-06
-9.15984e-07
-1.09471e-06
-9.33094e-07
-7.58424e-07
-9.43619e-07
-5.03523e-07
-9.5257e-07
-2.91056e-07
-9.64584e-07
-8.33381e-08
-9.8383e-07
1.60799e-07
-1.00802e-06
4.86783e-07
-1.03621e-06
9.5069e-07
-1.05572e-06
1.67149e-06
-1.07066e-06
2.81325e-06
-9.97377e-07
4.91499e-06
-8.76882e-07
7.97455e-06
1.12656e-05
-7.56364e-07
-5.54293e-06
-1.47779e-06
-5.06417e-06
-2.02034e-06
-4.34983e-06
-2.43048e-06
-3.47476e-06
-2.72387e-06
-2.64612e-06
-2.92587e-06
-1.95449e-06
-3.05881e-06
-1.41599e-06
-3.13977e-06
-1.01375e-06
-3.1834e-06
-7.14791e-07
-3.19972e-06
-4.87205e-07
-3.19742e-06
-2.93356e-07
-3.18571e-06
-9.50481e-08
-3.1633e-06
1.38391e-07
-3.1208e-06
4.44278e-07
-3.05369e-06
8.83585e-07
-2.94413e-06
1.56193e-06
-2.78828e-06
2.65739e-06
-2.4109e-06
4.5376e-06
-1.76785e-06
7.3315e-06
9.49778e-06
-1.36545e-06
-4.17747e-06
-2.59394e-06
-3.83569e-06
-3.57563e-06
-3.36814e-06
-4.32446e-06
-2.72593e-06
-4.86837e-06
-2.10222e-06
-5.24984e-06
-1.57302e-06
-5.51334e-06
-1.15249e-06
-5.69322e-06
-8.33867e-07
-5.81449e-06
-5.93522e-07
-5.89464e-06
-4.07064e-07
-5.94637e-06
-2.41619e-07
-5.97959e-06
-6.18313e-08
-5.98123e-06
1.4003e-07
-5.93036e-06
3.93411e-07
-5.79928e-06
7.525e-07
-5.54262e-06
1.30528e-06
-5.09145e-06
2.20622e-06
-4.21417e-06
3.66032e-06
-2.51696e-06
5.6343e-06
6.98082e-06
-1.91246e-06
-2.26501e-06
-3.67088e-06
-2.07726e-06
-5.18302e-06
-1.856e-06
-6.39189e-06
-1.51706e-06
-7.30687e-06
-1.18724e-06
-7.97384e-06
-9.06052e-07
-8.45011e-06
-6.76215e-07
-8.79305e-06
-4.90925e-07
-9.04306e-06
-3.43514e-07
-9.22326e-06
-2.26864e-07
-9.34392e-06
-1.20959e-07
-9.40298e-06
-2.77695e-09
-9.37134e-06
1.08392e-07
-9.22356e-06
2.45635e-07
-8.91428e-06
4.43215e-07
-8.35034e-06
7.41336e-07
-7.38382e-06
1.2397e-06
-5.75961e-06
2.03612e-06
-3.31731e-06
3.19199e-06
3.66351e-06
-2.27484e-06
9.83217e-09
-4.36241e-06
1.03065e-08
-6.23385e-06
1.54382e-08
-7.77232e-06
2.14087e-08
-8.98476e-06
2.51974e-08
-9.91863e-06
2.78199e-08
-1.06216e-05
2.67391e-08
-1.11372e-05
2.46822e-08
-1.15014e-05
2.06962e-08
-1.17445e-05
1.62424e-08
-1.18768e-05
1.13842e-08
-1.18859e-05
6.30084e-09
-1.17779e-05
4.08456e-10
-1.15271e-05
-5.16812e-09
-1.10737e-05
-1.02673e-08
-1.03151e-05
-1.72714e-08
-9.05009e-06
-2.52655e-08
-6.97662e-06
-3.73528e-08
-3.73228e-06
-5.23483e-08
-6.87664e-08
-2.26812e-06
2.27795e-06
-4.35132e-06
2.09351e-06
-6.21887e-06
1.88299e-06
-7.75368e-06
1.55622e-06
-8.962e-06
1.23352e-06
-9.88977e-06
9.55595e-07
-1.05879e-05
7.24846e-07
-1.10998e-05
5.36561e-07
-1.14617e-05
3.82599e-07
-1.17036e-05
2.58216e-07
-1.18354e-05
1.43134e-07
-1.18455e-05
1.64141e-08
-1.17373e-05
-1.07745e-07
-1.14871e-05
-2.55404e-07
-1.10351e-05
-4.62309e-07
-1.02794e-05
-7.72903e-07
-9.01872e-06
-1.28598e-06
-6.95152e-06
-2.10455e-06
-3.71658e-06
-3.28729e-06
-3.78535e-06
-1.90411e-06
4.18206e-06
-3.65758e-06
3.84698e-06
-5.1657e-06
3.39111e-06
-6.37004e-06
2.76056e-06
-7.2803e-06
2.14377e-06
-7.93993e-06
1.61523e-06
-8.40721e-06
1.19212e-06
-8.73919e-06
8.68538e-07
-8.97798e-06
6.21397e-07
-9.14765e-06
4.27879e-07
-9.25967e-06
2.55156e-07
-9.31219e-06
6.89386e-08
-9.27941e-06
-1.40527e-07
-9.13332e-06
-4.015e-07
-8.8281e-06
-7.67526e-07
-8.27217e-06
-1.32884e-06
-7.318e-06
-2.24014e-06
-5.71137e-06
-3.71118e-06
-3.29003e-06
-5.70864e-06
-7.07537e-06
-1.35933e-06
5.54139e-06
-2.58462e-06
5.07226e-06
-3.56414e-06
4.37063e-06
-4.30989e-06
3.50631e-06
-4.84861e-06
2.68249e-06
-5.22327e-06
1.98988e-06
-5.47857e-06
1.44743e-06
-5.64946e-06
1.03942e-06
-5.76177e-06
7.33701e-07
-5.83309e-06
4.99202e-07
-5.8766e-06
2.98667e-07
-5.90252e-06
9.48553e-08
-5.89911e-06
-1.43931e-07
-5.84566e-06
-4.54948e-07
-5.71469e-06
-8.98502e-07
-5.46223e-06
-1.58129e-06
-5.02129e-06
-2.68108e-06
-4.16365e-06
-4.56883e-06
-2.4934e-06
-7.37888e-06
-9.56877e-06
-7.52328e-07
6.29372e-06
-1.47114e-06
5.79107e-06
-2.01119e-06
4.91069e-06
-2.41772e-06
3.91285e-06
-2.70623e-06
2.971e-06
-2.9029e-06
2.18655e-06
-3.03036e-06
1.57489e-06
-3.10599e-06
1.11506e-06
-3.14486e-06
7.72575e-07
-3.15711e-06
5.11449e-07
-3.15153e-06
2.93084e-07
-3.13698e-06
8.03096e-08
-3.11235e-06
-1.6856e-07
-3.06853e-06
-4.98767e-07
-3.00058e-06
-9.6646e-07
-2.89107e-06
-1.6908e-06
-2.737e-06
-2.83515e-06
-2.36559e-06
-4.94024e-06
-1.74342e-06
-8.00105e-06
-1.13122e-05
-2.2898e-07
6.5227e-06
-4.33042e-07
5.99514e-06
-5.81426e-07
5.05907e-06
-6.86001e-07
4.01742e-06
-7.65172e-07
3.05017e-06
-8.22998e-07
2.24438e-06
-8.62155e-07
1.61405e-06
-8.86455e-07
1.13936e-06
-9.00825e-07
7.86944e-07
-9.09413e-07
5.20036e-07
-9.17226e-07
3.00897e-07
-9.28677e-07
9.17595e-08
-9.47977e-07
-1.49261e-07
-9.72847e-07
-4.73897e-07
-1.00231e-06
-9.36998e-07
-1.02391e-06
-1.6692e-06
-1.03968e-06
-2.81938e-06
-9.72435e-07
-5.00748e-06
-8.61374e-07
-8.11211e-06
-1.21736e-05
3.65998e-07
6.1567e-06
5.74012e-07
5.78712e-06
7.78033e-07
4.85505e-06
9.48005e-07
3.84745e-06
1.06581e-06
2.93237e-06
1.13611e-06
2.17407e-06
1.1702e-06
1.57996e-06
1.17822e-06
1.13133e-06
1.16697e-06
7.98193e-07
1.1405e-06
5.46511e-07
1.09903e-06
3.42363e-07
1.04103e-06
1.49766e-07
9.58526e-07
-6.67614e-08
8.50226e-07
-3.65598e-07
7.03509e-07
-7.90281e-07
5.19474e-07
-1.48517e-06
3.40795e-07
-2.6407e-06
-7.71977e-08
-4.58949e-06
-1.59863e-07
-8.02945e-06
-1.23334e-05
7.52634e-07
5.40407e-06
1.45108e-06
5.08868e-06
2.05505e-06
4.25108e-06
2.51413e-06
3.38837e-06
2.82742e-06
2.61907e-06
3.01903e-06
1.98247e-06
3.12083e-06
1.47815e-06
3.15954e-06
1.09263e-06
3.15332e-06
8.04415e-07
3.1149e-06
5.84928e-07
3.04893e-06
4.08331e-07
2.95568e-06
2.43017e-07
2.82237e-06
6.65467e-08
2.65123e-06
-1.94451e-07
2.40553e-06
-5.44589e-07
2.09267e-06
-1.1723e-06
1.60866e-06
-2.1567e-06
1.06902e-06
-4.04985e-06
4.3069e-07
-7.39112e-06
-1.19027e-05
1.0185e-06
4.38557e-06
2.24091e-06
3.86626e-06
3.25686e-06
3.23513e-06
4.00958e-06
2.63565e-06
4.53454e-06
2.09411e-06
4.87903e-06
1.63798e-06
5.08487e-06
1.27231e-06
5.19029e-06
9.87203e-07
5.22287e-06
7.71842e-07
5.20639e-06
6.01402e-07
5.14848e-06
4.66246e-07
5.05822e-06
3.33271e-07
4.92427e-06
2.00502e-07
4.75795e-06
-2.81295e-08
4.45346e-06
-2.40099e-07
4.04659e-06
-7.65433e-07
3.35283e-06
-1.46294e-06
2.49052e-06
-3.18753e-06
1.13278e-06
-6.03339e-06
-1.077e-05
1.11429e-06
3.27128e-06
2.69747e-06
2.28309e-06
4.15576e-06
1.77684e-06
5.30347e-06
1.48794e-06
6.16115e-06
1.23643e-06
6.7923e-06
1.00682e-06
7.25063e-06
8.13982e-07
7.57732e-06
6.60516e-07
7.80555e-06
5.43611e-07
7.95933e-06
4.4762e-07
8.05725e-06
3.68335e-07
8.10488e-06
2.85634e-07
8.09777e-06
2.07612e-07
7.98185e-06
8.77954e-08
7.76788e-06
-2.61267e-08
7.39029e-06
-3.8785e-07
6.69541e-06
-7.68058e-07
5.46869e-06
-1.96081e-06
2.99142e-06
-3.55612e-06
-7.77853e-06
3.27128e-06
5.55436e-06
7.3312e-06
8.81914e-06
1.00556e-05
1.10624e-05
1.18764e-05
1.25369e-05
1.30805e-05
1.35281e-05
1.38965e-05
1.41821e-05
1.43897e-05
1.44775e-05
1.44514e-05
1.40635e-05
1.32955e-05
1.13347e-05
7.77853e-06
)
;

boundaryField
{
    movingWall
    {
        type            calculated;
        value           uniform 0;
    }
    movingWallBottom
    {
        type            calculated;
        value           uniform 0;
    }
    fixedWalls
    {
        type            calculated;
        value           uniform 0;
    }
    frontAndBack
    {
        type            empty;
        value           nonuniform 0();
    }
}


// ************************************************************************* //
