/*--------------------------------*- C++ -*----------------------------------*\
| =========                 |                                                 |
| \\      /  F ield         | OpenFOAM: The Open Source CFD Toolbox           |
|  \\    /   O peration     | Version:  4.1                                   |
|   \\  /    A nd           | Web:      www.OpenFOAM.org                      |
|    \\/     M anipulation  |                                                 |
\*---------------------------------------------------------------------------*/
FoamFile
{
    version     2.0;
    format      ascii;
    class       volVectorField;
    location    "5";
    object      U;
}
// * * * * * * * * * * * * * * * * * * * * * * * * * * * * * * * * * * * * * //

dimensions      [0 1 -1 0 0 0 0];

internalField   nonuniform List<vector> 
400
(
(0.0649531 -0.0991608 0)
(0.079074 -0.0647045 0)
(0.127012 -0.0445277 0)
(0.162821 -0.0348291 0)
(0.190167 -0.0287586 0)
(0.212371 -0.0241604 0)
(0.230106 -0.0204592 0)
(0.245057 -0.0174516 0)
(0.25665 -0.0149861 0)
(0.266694 -0.0129311 0)
(0.274023 -0.0111193 0)
(0.280679 -0.00948494 0)
(0.284611 -0.00779475 0)
(0.287955 -0.00604534 0)
(0.287617 -0.00375463 0)
(0.283937 -0.000349063 0)
(0.27282 0.00141512 0)
(0.253347 0.0121999 0)
(0.190423 0.0226853 0)
(0.173344 0.117392 0)
(0.0172176 -0.0537019 0)
(0.0337726 -0.0445889 0)
(0.0682811 -0.0388708 0)
(0.094235 -0.0329953 0)
(0.114566 -0.0269819 0)
(0.129895 -0.0213841 0)
(0.140861 -0.0166751 0)
(0.148804 -0.0129632 0)
(0.153958 -0.0102555 0)
(0.157764 -0.0080808 0)
(0.159635 -0.00642484 0)
(0.161314 -0.00452476 0)
(0.160863 -0.00287055 0)
(0.160499 0.000784573 0)
(0.155611 0.00378645 0)
(0.152117 0.0124505 0)
(0.136977 0.0225236 0)
(0.129366 0.0517582 0)
(0.066949 0.0955174 0)
(0.0909318 0.165934 0)
(0.0121331 -0.105476 0)
(0.0315811 -0.0976076 0)
(0.0547654 -0.0825251 0)
(0.0723012 -0.0674372 0)
(0.0854124 -0.0529889 0)
(0.0944342 -0.0406123 0)
(0.099893 -0.030772 0)
(0.1028 -0.0232744 0)
(0.103904 -0.0176857 0)
(0.103925 -0.0134179 0)
(0.10297 -0.0100046 0)
(0.101604 -0.00689556 0)
(0.098971 -0.00359854 0)
(0.0966232 0.000883357 0)
(0.0906424 0.0070667 0)
(0.0864191 0.0188546 0)
(0.0706374 0.036598 0)
(0.0694061 0.074698 0)
(0.0139267 0.138048 0)
(0.0504683 0.224966 0)
(0.00751133 -0.119423 0)
(0.0219236 -0.112016 0)
(0.0338765 -0.0929289 0)
(0.0452592 -0.0728024 0)
(0.0534323 -0.0554163 0)
(0.0585949 -0.0413391 0)
(0.0614079 -0.0303156 0)
(0.062613 -0.0219595 0)
(0.0627632 -0.0157354 0)
(0.0622136 -0.0110348 0)
(0.0611 -0.00725233 0)
(0.0595137 -0.00371673 0)
(0.0571713 0.000214863 0)
(0.0543641 0.00572621 0)
(0.0497576 0.0134572 0)
(0.0458453 0.0265603 0)
(0.0333851 0.0482949 0)
(0.0379112 0.0881045 0)
(-0.00624146 0.158 0)
(0.0327781 0.253599 0)
(0.00287346 -0.130047 0)
(0.00961355 -0.121203 0)
(0.0122025 -0.10168 0)
(0.0166517 -0.0804773 0)
(0.0198547 -0.0608938 0)
(0.0218666 -0.0446867 0)
(0.0228593 -0.0321219 0)
(0.0231672 -0.0227061 0)
(0.0230161 -0.015757 0)
(0.0225589 -0.0105535 0)
(0.0218279 -0.00635198 0)
(0.0208112 -0.00235806 0)
(0.0193775 0.00220048 0)
(0.0175407 0.00839229 0)
(0.0148743 0.0172915 0)
(0.0126914 0.0316122 0)
(0.00426387 0.0548234 0)
(0.0127414 0.0965798 0)
(-0.0194772 0.165894 0)
(0.0179555 0.254991 0)
(-0.00566247 -0.130715 0)
(-0.00608764 -0.11925 0)
(-0.0117349 -0.100611 0)
(-0.0136017 -0.0797873 0)
(-0.0151091 -0.0603874 0)
(-0.0163278 -0.0442954 0)
(-0.017279 -0.0317666 0)
(-0.0179728 -0.0224106 0)
(-0.0184219 -0.0154918 0)
(-0.0187248 -0.0102415 0)
(-0.0189465 -0.00589754 0)
(-0.0191859 -0.00168621 0)
(-0.0195608 0.00316894 0)
(-0.0200387 0.00970744 0)
(-0.0206231 0.019171 0)
(-0.0210815 0.0338546 0)
(-0.024199 0.0568869 0)
(-0.0137745 0.0989591 0)
(-0.0329859 0.163122 0)
(0.008644 0.241946 0)
(-0.0121434 -0.11808 0)
(-0.0227084 -0.109572 0)
(-0.0370796 -0.0934955 0)
(-0.0460429 -0.0744956 0)
(-0.0523073 -0.0565753 0)
(-0.0568467 -0.0416707 0)
(-0.0599564 -0.0300661 0)
(-0.0620428 -0.0213648 0)
(-0.0632567 -0.0149429 0)
(-0.0638494 -0.0100812 0)
(-0.0640181 -0.00596704 0)
(-0.0639371 -0.00186302 0)
(-0.0636767 0.00300811 0)
(-0.0631411 0.00952535 0)
(-0.0625095 0.0183905 0)
(-0.0615187 0.0319755 0)
(-0.0594439 0.0545559 0)
(-0.0485154 0.0960778 0)
(-0.0509325 0.157804 0)
(-0.0063476 0.214852 0)
(-0.0207513 -0.0965139 0)
(-0.0402685 -0.089073 0)
(-0.0642762 -0.0776004 0)
(-0.0814438 -0.0624665 0)
(-0.0932248 -0.048056 0)
(-0.101914 -0.0357969 0)
(-0.10785 -0.0261167 0)
(-0.112204 -0.0188473 0)
(-0.115107 -0.0133456 0)
(-0.117116 -0.00907185 0)
(-0.118484 -0.00538707 0)
(-0.119414 -0.00157878 0)
(-0.120013 0.00303606 0)
(-0.120074 0.0090223 0)
(-0.119427 0.0177637 0)
(-0.116362 0.0314404 0)
(-0.108658 0.0534336 0)
(-0.0915922 0.0897478 0)
(-0.068403 0.139421 0)
(-0.019111 0.174667 0)
(-0.0274191 -0.062813 0)
(-0.0565064 -0.058519 0)
(-0.0913973 -0.0517114 0)
(-0.119257 -0.041643 0)
(-0.138932 -0.0319857 0)
(-0.154261 -0.0241548 0)
(-0.164666 -0.0179138 0)
(-0.172679 -0.0129992 0)
(-0.178329 -0.00917 0)
(-0.182801 -0.00614335 0)
(-0.185795 -0.00336043 0)
(-0.187881 -0.000339769 0)
(-0.189019 0.00339297 0)
(-0.188345 0.0080986 0)
(-0.185062 0.0146765 0)
(-0.176883 0.0247944 0)
(-0.160153 0.0413036 0)
(-0.130494 0.0670599 0)
(-0.0814235 0.100915 0)
(-0.0456774 0.11655 0)
(-0.0322861 -0.0221567 0)
(-0.0666502 -0.020354 0)
(-0.10879 -0.0183653 0)
(-0.144673 -0.0153059 0)
(-0.169727 -0.0123486 0)
(-0.19065 -0.00927344 0)
(-0.206009 -0.00664744 0)
(-0.218107 -0.00458513 0)
(-0.226563 -0.00297683 0)
(-0.232824 -0.00171899 0)
(-0.23652 -0.000597018 0)
(-0.238361 0.000453892 0)
(-0.238575 0.00199189 0)
(-0.236452 0.00360148 0)
(-0.230735 0.00619621 0)
(-0.218147 0.010019 0)
(-0.19476 0.0164822 0)
(-0.156269 0.0262862 0)
(-0.10077 0.0388419 0)
(-0.0502521 0.0432514 0)
(-0.0321727 0.0224966 0)
(-0.0664708 0.0207263 0)
(-0.108517 0.0189415 0)
(-0.144343 0.0161149 0)
(-0.169345 0.0132915 0)
(-0.190117 0.0103177 0)
(-0.205386 0.00765672 0)
(-0.217392 0.00552117 0)
(-0.225783 0.00376867 0)
(-0.232005 0.00234473 0)
(-0.235683 0.00102694 0)
(-0.237595 -0.000249778 0)
(-0.237715 -0.00199073 0)
(-0.235651 -0.00386078 0)
(-0.229916 -0.00669003 0)
(-0.217411 -0.0108369 0)
(-0.194093 -0.0176736 0)
(-0.155744 -0.028027 0)
(-0.100372 -0.0412141 0)
(-0.0497805 -0.0463214 0)
(-0.0272807 0.062993 0)
(-0.0562681 0.0587988 0)
(-0.0910835 0.0522101 0)
(-0.118892 0.042384 0)
(-0.138452 0.0328793 0)
(-0.153679 0.0250664 0)
(-0.163911 0.0187952 0)
(-0.171728 0.013809 0)
(-0.177141 0.00984543 0)
(-0.181393 0.00666921 0)
(-0.184179 0.00372063 0)
(-0.186109 0.000530729 0)
(-0.187136 -0.00335958 0)
(-0.186493 -0.00825891 0)
(-0.183242 -0.0150035 0)
(-0.175202 -0.0253324 0)
(-0.158688 -0.0420939 0)
(-0.129356 -0.0682399 0)
(-0.0808707 -0.102595 0)
(-0.0448829 -0.118566 0)
(-0.0206404 0.0965492 0)
(-0.040091 0.0892637 0)
(-0.0640653 0.078027 0)
(-0.0812098 0.0631101 0)
(-0.0928974 0.0488124 0)
(-0.101473 0.0365571 0)
(-0.107243 0.0268146 0)
(-0.111419 0.019436 0)
(-0.114149 0.0138073 0)
(-0.115969 0.00939983 0)
(-0.117168 0.00557675 0)
(-0.117933 0.0016497 0)
(-0.118404 -0.00308163 0)
(-0.118368 -0.00916404 0)
(-0.117673 -0.0179808 0)
(-0.114659 -0.0317522 0)
(-0.107114 -0.0538691 0)
(-0.0903199 -0.0904371 0)
(-0.067908 -0.140547 0)
(-0.0186606 -0.176316 0)
(-0.01207 0.118014 0)
(-0.022586 0.109707 0)
(-0.0369238 0.0938872 0)
(-0.0458464 0.0750889 0)
(-0.0520161 0.0572483 0)
(-0.0564501 0.0423177 0)
(-0.0594445 0.0306313 0)
(-0.0614194 0.0218147 0)
(-0.06253 0.0152617 0)
(-0.0630351 0.0102674 0)
(-0.0631281 0.00602745 0)
(-0.0629848 0.0018142 0)
(-0.0626746 -0.00315635 0)
(-0.0620977 -0.00976655 0)
(-0.06143 -0.018718 0)
(-0.0604174 -0.032362 0)
(-0.0584043 -0.0549524 0)
(-0.0474623 -0.0964745 0)
(-0.0503428 -0.158294 0)
(-0.00605245 -0.215885 0)
(-0.0055998 0.130572 0)
(-0.00599339 0.119337 0)
(-0.0115931 0.100945 0)
(-0.0134001 0.0803026 0)
(-0.0148156 0.060968 0)
(-0.0159385 0.04485 0)
(-0.0167988 0.0322419 0)
(-0.0174151 0.022778 0)
(-0.0177992 0.0157417 0)
(-0.0180561 0.0103747 0)
(-0.0182462 0.00592068 0)
(-0.0184685 0.00161225 0)
(-0.0188386 -0.00332918 0)
(-0.0193224 -0.00994523 0)
(-0.0199227 -0.0194786 0)
(-0.0203935 -0.0342425 0)
(-0.0235899 -0.0573697 0)
(-0.013146 -0.0994657 0)
(-0.0326024 -0.163624 0)
(0.00879011 -0.242702 0)
(0.00290358 0.129856 0)
(0.00967861 0.121242 0)
(0.0123307 0.101967 0)
(0.0168577 0.0809217 0)
(0.0201591 0.0613951 0)
(0.0222695 0.0451625 0)
(0.0233496 0.0325262 0)
(0.0237262 0.0230166 0)
(0.023625 0.0159662 0)
(0.0231974 0.0106618 0)
(0.0224781 0.00636615 0)
(0.0214582 0.0022879 0)
(0.0200047 -0.00234427 0)
(0.0181414 -0.00860487 0)
(0.0154344 -0.0175651 0)
(0.013208 -0.031936 0)
(0.00470401 -0.0551714 0)
(0.0132099 -0.0968742 0)
(-0.0192088 -0.166195 0)
(0.018078 -0.255448 0)
(0.00754019 0.119193 0)
(0.0219624 0.111984 0)
(0.0339734 0.0931327 0)
(0.0454426 0.073143 0)
(0.0537322 0.0558029 0)
(0.0590101 0.0417119 0)
(0.061921 0.0306387 0)
(0.0632002 0.0222121 0)
(0.0633986 0.0159087 0)
(0.0628741 0.0111275 0)
(0.0617631 0.0072694 0)
(0.0601632 0.00366202 0)
(0.0577844 -0.000329884 0)
(0.0549341 -0.00589335 0)
(0.0502617 -0.0136752 0)
(0.0462913 -0.0268291 0)
(0.0337374 -0.0485731 0)
(0.0381935 -0.0883852 0)
(-0.0060234 -0.158356 0)
(0.0328436 -0.253827 0)
(0.0121171 0.105265 0)
(0.0315462 0.0975351 0)
(0.0547791 0.0826344 0)
(0.0724236 0.0676565 0)
(0.0856555 0.0532688 0)
(0.0948062 0.0408946 0)
(0.100382 0.0310225 0)
(0.103382 0.0234748 0)
(0.104546 0.0178303 0)
(0.1046 0.0135051 0)
(0.103646 0.010039 0)
(0.102263 0.00687694 0)
(0.0995907 0.00353462 0)
(0.0971922 -0.000995963 0)
(0.0911204 -0.00721845 0)
(0.0868394 -0.0190405 0)
(0.0709426 -0.036776 0)
(0.0696411 -0.0748909 0)
(0.0140515 -0.138185 0)
(0.0505423 -0.225113 0)
(0.0171452 0.0535495 0)
(0.0336489 0.0444852 0)
(0.0681923 0.0388908 0)
(0.0942142 0.0330984 0)
(0.11465 0.0271205 0)
(0.130103 0.0215278 0)
(0.14118 0.0168065 0)
(0.149232 0.0130685 0)
(0.154456 0.0103364 0)
(0.158321 0.00813031 0)
(0.160204 0.00645329 0)
(0.161891 0.00452012 0)
(0.1614 0.00285178 0)
(0.160998 -0.000839062 0)
(0.156042 -0.00384203 0)
(0.152496 -0.0125467 0)
(0.137251 -0.022603 0)
(0.129565 -0.0518508 0)
(0.0670641 -0.0956054 0)
(0.090983 -0.165998 0)
(0.0648864 0.0991362 0)
(0.0789807 0.0646657 0)
(0.126863 0.0445012 0)
(0.162698 0.0348216 0)
(0.190091 0.0287669 0)
(0.212382 0.0241723 0)
(0.230191 0.0204772 0)
(0.245229 0.017467 0)
(0.256877 0.0150052 0)
(0.266976 0.0129455 0)
(0.274327 0.0111366 0)
(0.281004 0.00949357 0)
(0.284925 0.00780727 0)
(0.288261 0.00604567 0)
(0.287882 0.00376628 0)
(0.284163 0.000344696 0)
(0.272989 -0.00140808 0)
(0.253468 -0.0122188 0)
(0.190472 -0.0226866 0)
(0.173364 -0.117384 0)
)
;

boundaryField
{
    movingWall
    {
        type            fixedValue;
        value           uniform (1 0 0);
    }
    movingWallBottom
    {
        type            fixedValue;
        value           uniform (1 0 0);
    }
    fixedWalls
    {
        type            noSlip;
    }
    frontAndBack
    {
        type            empty;
    }
}


// ************************************************************************* //
