/*--------------------------------*- C++ -*----------------------------------*\
| =========                 |                                                 |
| \\      /  F ield         | OpenFOAM: The Open Source CFD Toolbox           |
|  \\    /   O peration     | Version:  4.1                                   |
|   \\  /    A nd           | Web:      www.OpenFOAM.org                      |
|    \\/     M anipulation  |                                                 |
\*---------------------------------------------------------------------------*/
FoamFile
{
    version     2.0;
    format      ascii;
    class       volScalarField;
    location    "2";
    object      epsilon;
}
// * * * * * * * * * * * * * * * * * * * * * * * * * * * * * * * * * * * * * //

dimensions      [0 2 -3 0 0 0 0];

internalField   nonuniform List<scalar> 
400
(
0.0392849
0.0778413
0.10988
0.128323
0.138613
0.144693
0.148423
0.151077
0.152738
0.154315
0.155249
0.156516
0.157246
0.158721
0.160073
0.162839
0.165601
0.16968
0.183915
0.15754
0.00434302
0.00528006
0.0077472
0.00942877
0.0105857
0.0114405
0.0121407
0.012796
0.0133823
0.0140588
0.0147386
0.0155537
0.016404
0.017492
0.0185336
0.0208612
0.026316
0.0404587
0.0723699
0.113836
0.0038632
0.00209397
0.00210479
0.00226037
0.00241441
0.0024804
0.0024975
0.00250133
0.00252299
0.00258771
0.00270373
0.00288533
0.00309609
0.00337776
0.00362041
0.00419046
0.00570629
0.0116547
0.0323341
0.0812946
0.00444624
0.00201006
0.00175255
0.00179523
0.00183846
0.00181186
0.00175544
0.00169368
0.00165611
0.00165018
0.00166399
0.00169601
0.0017225
0.00176948
0.00179209
0.00189506
0.0024346
0.00571621
0.0205113
0.0649359
0.0054232
0.00240028
0.00206615
0.00202442
0.00194217
0.00184599
0.0017898
0.00178433
0.00180269
0.00182258
0.00181878
0.00178066
0.00168578
0.00154774
0.00136896
0.00128146
0.0015354
0.00414779
0.0166711
0.0547881
0.00594194
0.00264993
0.00240507
0.00223663
0.00208996
0.00205792
0.0021136
0.00220093
0.002254
0.00224545
0.00215321
0.00197166
0.0017199
0.00143957
0.00119034
0.00111533
0.00155529
0.00428686
0.0160401
0.0470988
0.0065028
0.00319193
0.00280521
0.00240853
0.00228818
0.00228727
0.00241611
0.00252886
0.00256042
0.00252186
0.00238287
0.00214341
0.00185542
0.00155084
0.00140164
0.00140747
0.00210754
0.00526621
0.0166496
0.0403759
0.00673831
0.00372364
0.00315542
0.00254421
0.00237989
0.00238674
0.00256221
0.00274479
0.0028284
0.00285027
0.00274623
0.00256115
0.00238246
0.00229848
0.00229758
0.00265841
0.00396014
0.00786661
0.0182649
0.0336951
0.00681031
0.00417225
0.0034193
0.00259638
0.00235391
0.00232188
0.00245013
0.00268446
0.00287182
0.00306466
0.00324468
0.00344243
0.0037219
0.00411547
0.00473511
0.00583184
0.00787943
0.0117098
0.0184147
0.0260223
0.00666554
0.00437897
0.00355157
0.00261703
0.00229805
0.00221849
0.00226173
0.00248915
0.00274404
0.00309055
0.00351697
0.00403196
0.00469882
0.00555464
0.00671063
0.0083126
0.0105404
0.0134622
0.0150358
0.0143048
0.00665419
0.00437836
0.00355112
0.00261578
0.00229633
0.00221652
0.0022594
0.00248723
0.00274241
0.0030895
0.00351643
0.00403212
0.00469936
0.0055549
0.00671106
0.00831297
0.0105418
0.0134665
0.0150447
0.0143262
0.00678372
0.00417112
0.00341277
0.00259116
0.0023482
0.00231582
0.00244367
0.00267791
0.0028662
0.00306132
0.00324271
0.00344132
0.00372077
0.00411431
0.00473284
0.00582835
0.00787482
0.0117063
0.0184235
0.0260534
0.00670581
0.00372317
0.00314314
0.00253521
0.00237197
0.00237836
0.00255375
0.00273587
0.00281938
0.00284109
0.00273768
0.00255307
0.00237615
0.00229315
0.00229233
0.00265266
0.00395296
0.00785852
0.0182638
0.0337208
0.0064605
0.00319622
0.00279398
0.00239404
0.00227827
0.00227858
0.00240952
0.00251955
0.00254925
0.00250907
0.00236976
0.00213143
0.00184513
0.00154287
0.00139474
0.00140075
0.0020992
0.00525487
0.0166483
0.0404026
0.00588612
0.00265891
0.00240415
0.00221723
0.00207441
0.0020477
0.00210873
0.00219679
0.00224909
0.00223898
0.00214491
0.00196202
0.00170959
0.00143029
0.00118252
0.001108
0.00154512
0.00427267
0.0160392
0.0471236
0.00536372
0.0024111
0.00207944
0.00201995
0.0019294
0.00183334
0.00178224
0.00178115
0.00180153
0.00182175
0.0018166
0.00177587
0.00167812
0.00153799
0.00135805
0.00126964
0.00152259
0.0041312
0.0166601
0.0548093
0.0043912
0.00200632
0.00175787
0.00179536
0.00182888
0.00179919
0.00174059
0.00168138
0.00164538
0.00164004
0.00165322
0.0016838
0.00170849
0.0017541
0.00177545
0.00187656
0.00241352
0.00568974
0.0205005
0.0649499
0.00382136
0.00208489
0.0020981
0.00225059
0.00239445
0.0024532
0.00246683
0.00247013
0.0024912
0.00255507
0.00267062
0.00285031
0.00305959
0.00333894
0.00358175
0.00415183
0.0056684
0.0116215
0.0323244
0.0812967
0.00430884
0.00524374
0.0076886
0.00935362
0.0104954
0.0113381
0.0120313
0.0126817
0.0132663
0.0139422
0.0146256
0.0154427
0.0162973
0.0173932
0.0184378
0.0207789
0.0262496
0.0404135
0.0723537
0.113811
0.0392417
0.0777582
0.109762
0.12819
0.138447
0.144491
0.148191
0.150826
0.152477
0.154058
0.155003
0.156292
0.15704
0.158548
0.159916
0.162702
0.165477
0.169564
0.183818
0.157484
)
;

boundaryField
{
    movingWall
    {
        Cmu             0.09;
        kappa           0.41;
        E               9.8;
        type            epsilonWallFunction;
        value           nonuniform List<scalar> 
20
(
0.0392417
0.0777582
0.109762
0.12819
0.138447
0.144491
0.148191
0.150826
0.152477
0.154058
0.155003
0.156292
0.15704
0.158548
0.159916
0.162702
0.165477
0.169564
0.183818
0.157484
)
;
    }
    movingWallBottom
    {
        Cmu             0.09;
        kappa           0.41;
        E               9.8;
        type            epsilonWallFunction;
        value           nonuniform List<scalar> 
20
(
0.0392849
0.0778413
0.10988
0.128323
0.138613
0.144693
0.148423
0.151077
0.152738
0.154315
0.155249
0.156516
0.157246
0.158721
0.160073
0.162839
0.165601
0.16968
0.183915
0.15754
)
;
    }
    fixedWalls
    {
        Cmu             0.09;
        kappa           0.41;
        E               9.8;
        type            epsilonWallFunction;
        value           nonuniform List<scalar> 
40
(
0.0392849
0.00434302
0.0038632
0.00444624
0.0054232
0.00594194
0.0065028
0.00673831
0.00681031
0.00666554
0.00665419
0.00678372
0.00670581
0.0064605
0.00588612
0.00536372
0.0043912
0.00382136
0.00430884
0.0392417
0.15754
0.113836
0.0812946
0.0649359
0.0547881
0.0470988
0.0403759
0.0336951
0.0260223
0.0143048
0.0143262
0.0260534
0.0337208
0.0404026
0.0471236
0.0548093
0.0649499
0.0812967
0.113811
0.157484
)
;
    }
    frontAndBack
    {
        type            empty;
    }
}


// ************************************************************************* //
