/*--------------------------------*- C++ -*----------------------------------*\
| =========                 |                                                 |
| \\      /  F ield         | OpenFOAM: The Open Source CFD Toolbox           |
|  \\    /   O peration     | Version:  4.1                                   |
|   \\  /    A nd           | Web:      www.OpenFOAM.org                      |
|    \\/     M anipulation  |                                                 |
\*---------------------------------------------------------------------------*/
FoamFile
{
    version     2.0;
    format      ascii;
    class       volScalarField;
    location    "2";
    object      k;
}
// * * * * * * * * * * * * * * * * * * * * * * * * * * * * * * * * * * * * * //

dimensions      [0 2 -2 0 0 0 0];

internalField   nonuniform List<scalar> 
400
(
0.0039153
0.00617414
0.00776646
0.00861151
0.00906558
0.00932905
0.00948965
0.0096036
0.00967497
0.00974237
0.00978251
0.00983633
0.0098673
0.00992955
0.00998616
0.0101012
0.0102152
0.0103825
0.0109562
0.00988264
0.000905816
0.00113486
0.00149614
0.00170474
0.0018265
0.00189196
0.00193222
0.00195455
0.00196986
0.00200044
0.00204153
0.00210009
0.00217798
0.00227348
0.0023914
0.00257555
0.00295781
0.00390589
0.0060781
0.00795867
0.000839492
0.000969193
0.001216
0.00133024
0.00135305
0.00133041
0.00127642
0.00121636
0.00117105
0.00114551
0.00113064
0.00112894
0.00113234
0.00113595
0.00113604
0.00114774
0.00122797
0.00174615
0.00362854
0.00635922
0.000923854
0.00101342
0.00119921
0.00128074
0.00125819
0.00120127
0.00113584
0.00110351
0.00108417
0.00107926
0.00108028
0.00108319
0.00107852
0.00105586
0.000997187
0.000903577
0.000866614
0.00118677
0.00276206
0.0054751
0.00105336
0.00120509
0.00132116
0.00127642
0.00118452
0.00111529
0.00109836
0.00111117
0.00114401
0.00118316
0.00120608
0.00120021
0.001161
0.00107458
0.000943827
0.000802936
0.000721684
0.00103498
0.00249846
0.00488912
0.00111803
0.00135203
0.00139143
0.00122914
0.00112381
0.00110161
0.00113875
0.00121783
0.00128965
0.00132732
0.00133364
0.0012854
0.00117876
0.00102648
0.000829218
0.000687925
0.0006586
0.00105419
0.00242063
0.00442059
0.00118467
0.00150833
0.00145305
0.00119575
0.00112152
0.00112509
0.00118759
0.00127937
0.00134373
0.00136591
0.00135308
0.00126228
0.00112337
0.000938285
0.000770117
0.000703245
0.000713854
0.00118307
0.00246326
0.00398947
0.0012118
0.00167031
0.00149597
0.00118793
0.00112028
0.00112608
0.00118848
0.00125225
0.00127803
0.00128174
0.00123412
0.00113299
0.00101438
0.00090384
0.000852218
0.000838819
0.000988342
0.00153376
0.00260699
0.00353642
0.00121988
0.00180843
0.00152996
0.00114064
0.00102338
0.00100005
0.00101097
0.00106064
0.00109076
0.00110422
0.00110885
0.00110981
0.0011228
0.00115509
0.00122776
0.0013601
0.00162598
0.00205612
0.00261306
0.00297693
0.00120205
0.00187283
0.00155405
0.00112998
0.000984775
0.00093801
0.000928609
0.000952723
0.00100512
0.0010535
0.00113036
0.00120578
0.00130875
0.00142843
0.00158111
0.00177626
0.00201546
0.00224134
0.00233744
0.00199774
0.0012007
0.0018726
0.00155426
0.00112977
0.000984346
0.000937473
0.000928041
0.000952297
0.00100485
0.00105339
0.00113043
0.00120601
0.00130911
0.00142876
0.00158151
0.0017767
0.00201611
0.00224251
0.00233895
0.00199977
0.00121675
0.0018074
0.00153112
0.00114021
0.00102196
0.000998157
0.0010084
0.00105815
0.00108924
0.00110329
0.00110845
0.00110975
0.00112293
0.00115538
0.00122795
0.00136025
0.00162609
0.00205641
0.00261447
0.00297935
0.00120798
0.0016676
0.00149652
0.00118669
0.00111762
0.00112225
0.00118387
0.00124804
0.00127396
0.00127786
0.00123116
0.00113032
0.00101233
0.00090228
0.000850834
0.000837574
0.000987329
0.00153356
0.00260789
0.00353825
0.00117965
0.00150367
0.00145135
0.00119409
0.00111854
0.0011208
0.00118205
0.0012739
0.00133813
0.00136024
0.00134776
0.00125748
0.00111912
0.00093498
0.000767342
0.000700554
0.000711466
0.00118086
0.00246368
0.00399125
0.00111116
0.00134471
0.00138585
0.00122559
0.00112013
0.00109758
0.00113426
0.00121368
0.00128525
0.00132245
0.00132847
0.00127992
0.00117312
0.00102079
0.00082468
0.000684267
0.000655375
0.0010506
0.00242072
0.00442215
0.00104576
0.00119373
0.00131071
0.0012658
0.00117643
0.00110918
0.00109242
0.00110584
0.00113959
0.00117863
0.00120061
0.00119409
0.00115389
0.0010669
0.000936271
0.000796185
0.000715578
0.00103045
0.00249745
0.00489039
0.000916283
0.000998581
0.00118104
0.0012644
0.00124307
0.0011882
0.00112536
0.00109419
0.00107505
0.00107023
0.00107088
0.00107338
0.0010684
0.00104557
0.000987009
0.000893864
0.000858468
0.00117979
0.00276048
0.00547589
0.000833389
0.000948049
0.00119135
0.00130772
0.00133232
0.00131091
0.00125875
0.00120043
0.00115641
0.00113147
0.00111682
0.0011147
0.00111788
0.00112135
0.00112171
0.00113418
0.00121628
0.00173826
0.00362725
0.00635932
0.000901003
0.00111636
0.00147091
0.00167833
0.00180077
0.00186706
0.00190843
0.00193168
0.0019482
0.00197969
0.00202194
0.00208115
0.00215997
0.00225682
0.00237555
0.0025616
0.00294659
0.00389871
0.00607633
0.0079575
0.00391238
0.00616973
0.00776079
0.00860542
0.00905818
0.00932018
0.0094796
0.00959282
0.00966386
0.00973142
0.00977207
0.00982685
0.00985856
0.00992222
0.00997951
0.0100954
0.0102101
0.0103777
0.0109523
0.00988028
)
;

boundaryField
{
    movingWall
    {
        type            kqRWallFunction;
        value           nonuniform List<scalar> 
20
(
0.00391238
0.00616973
0.00776079
0.00860542
0.00905818
0.00932018
0.0094796
0.00959282
0.00966386
0.00973142
0.00977207
0.00982685
0.00985856
0.00992222
0.00997951
0.0100954
0.0102101
0.0103777
0.0109523
0.00988028
)
;
    }
    movingWallBottom
    {
        type            kqRWallFunction;
        value           nonuniform List<scalar> 
20
(
0.0039153
0.00617414
0.00776646
0.00861151
0.00906558
0.00932905
0.00948965
0.0096036
0.00967497
0.00974237
0.00978251
0.00983633
0.0098673
0.00992955
0.00998616
0.0101012
0.0102152
0.0103825
0.0109562
0.00988264
)
;
    }
    fixedWalls
    {
        type            kqRWallFunction;
        value           nonuniform List<scalar> 
40
(
0.0039153
0.000905816
0.000839492
0.000923854
0.00105336
0.00111803
0.00118467
0.0012118
0.00121988
0.00120205
0.0012007
0.00121675
0.00120798
0.00117965
0.00111116
0.00104576
0.000916283
0.000833389
0.000901003
0.00391238
0.00988264
0.00795867
0.00635922
0.0054751
0.00488912
0.00442059
0.00398947
0.00353642
0.00297693
0.00199774
0.00199977
0.00297935
0.00353825
0.00399125
0.00442215
0.00489039
0.00547589
0.00635932
0.0079575
0.00988028
)
;
    }
    frontAndBack
    {
        type            empty;
    }
}


// ************************************************************************* //
