/*--------------------------------*- C++ -*----------------------------------*\
| =========                 |                                                 |
| \\      /  F ield         | OpenFOAM: The Open Source CFD Toolbox           |
|  \\    /   O peration     | Version:  4.1                                   |
|   \\  /    A nd           | Web:      www.OpenFOAM.org                      |
|    \\/     M anipulation  |                                                 |
\*---------------------------------------------------------------------------*/
FoamFile
{
    version     2.0;
    format      ascii;
    class       volScalarField;
    location    "2";
    object      nut;
}
// * * * * * * * * * * * * * * * * * * * * * * * * * * * * * * * * * * * * * //

dimensions      [0 2 -1 0 0 0 0];

internalField   nonuniform List<scalar> 
400
(
3.51193e-05
4.40743e-05
4.94048e-05
5.20112e-05
5.33618e-05
5.41339e-05
5.46062e-05
5.49429e-05
5.51564e-05
5.53557e-05
5.54771e-05
5.56351e-05
5.5726e-05
5.5907e-05
5.60687e-05
5.63934e-05
5.67122e-05
5.71768e-05
5.87412e-05
5.57954e-05
1.70032e-05
2.19526e-05
2.60042e-05
2.77399e-05
2.83638e-05
2.81594e-05
2.76763e-05
2.68697e-05
2.60964e-05
2.56179e-05
2.54507e-05
2.55202e-05
2.60255e-05
2.65941e-05
2.77708e-05
2.86182e-05
2.99201e-05
3.39368e-05
4.59431e-05
5.00777e-05
1.64183e-05
4.03731e-05
6.32273e-05
7.04568e-05
6.82431e-05
6.42237e-05
5.8712e-05
5.32349e-05
4.89187e-05
4.56374e-05
4.25532e-05
3.97546e-05
3.72719e-05
3.43822e-05
3.20825e-05
2.82922e-05
2.37828e-05
2.35454e-05
3.66475e-05
4.47701e-05
1.72765e-05
4.59843e-05
7.38525e-05
8.22323e-05
7.7496e-05
7.16802e-05
6.61446e-05
6.47091e-05
6.3878e-05
6.3528e-05
6.31196e-05
6.22625e-05
6.07777e-05
5.67037e-05
4.99385e-05
3.87748e-05
2.7763e-05
2.21752e-05
3.34746e-05
4.15472e-05
1.84137e-05
5.44526e-05
7.60306e-05
7.24314e-05
6.50189e-05
6.06443e-05
6.06628e-05
6.22776e-05
6.53397e-05
6.9126e-05
7.19811e-05
7.28075e-05
7.19627e-05
6.71465e-05
5.85647e-05
4.52793e-05
3.05292e-05
2.32428e-05
3.36996e-05
3.92661e-05
1.8933e-05
6.20846e-05
7.24504e-05
6.07924e-05
5.43864e-05
5.30723e-05
5.5217e-05
6.06472e-05
6.64097e-05
7.06137e-05
7.43417e-05
7.54204e-05
7.27095e-05
6.5874e-05
5.19889e-05
3.81875e-05
2.51001e-05
2.33312e-05
3.2877e-05
3.73415e-05
1.94238e-05
6.41483e-05
6.77392e-05
5.34281e-05
4.94731e-05
4.98084e-05
5.25361e-05
5.82523e-05
6.34681e-05
6.65832e-05
6.91491e-05
6.69032e-05
6.1213e-05
5.10912e-05
3.80821e-05
3.1624e-05
2.17613e-05
2.39202e-05
3.27988e-05
3.54773e-05
1.96135e-05
6.74327e-05
6.38305e-05
4.99193e-05
4.74611e-05
4.78161e-05
4.96145e-05
5.14178e-05
5.19739e-05
5.18747e-05
4.99142e-05
4.51085e-05
3.88703e-05
3.19878e-05
2.84495e-05
2.38208e-05
2.21997e-05
2.69135e-05
3.34891e-05
3.34044e-05
1.96656e-05
7.05468e-05
6.16119e-05
4.50993e-05
4.00431e-05
3.87658e-05
3.75433e-05
3.77158e-05
3.72858e-05
3.58074e-05
3.4105e-05
3.22016e-05
3.04848e-05
2.91779e-05
2.86508e-05
2.85482e-05
3.0198e-05
3.24928e-05
3.33716e-05
3.06503e-05
1.95098e-05
7.20887e-05
6.11998e-05
4.39113e-05
3.79803e-05
3.56943e-05
3.43137e-05
3.2819e-05
3.31351e-05
3.23204e-05
3.26972e-05
3.24538e-05
3.28072e-05
3.30602e-05
3.35275e-05
3.416e-05
3.46842e-05
3.35847e-05
3.27036e-05
2.51095e-05
1.94992e-05
7.20809e-05
6.12244e-05
4.39157e-05
3.79755e-05
3.56852e-05
3.4307e-05
3.2815e-05
3.31368e-05
3.23246e-05
3.27058e-05
3.24649e-05
3.28212e-05
3.30739e-05
3.35424e-05
3.41756e-05
3.47019e-05
3.36091e-05
3.27266e-05
2.5123e-05
1.96416e-05
7.04851e-05
6.18234e-05
4.51562e-05
4.00292e-05
3.87199e-05
3.74515e-05
3.76306e-05
3.72547e-05
3.57859e-05
3.41007e-05
3.22081e-05
3.0501e-05
2.9201e-05
2.86738e-05
2.85717e-05
3.02196e-05
3.25118e-05
3.33917e-05
3.06634e-05
1.95843e-05
6.7222e-05
6.41274e-05
4.99921e-05
4.73939e-05
4.76587e-05
4.93937e-05
5.12395e-05
5.18087e-05
5.17279e-05
4.98298e-05
4.50381e-05
3.88165e-05
3.19516e-05
2.84221e-05
2.38016e-05
2.21944e-05
2.69342e-05
3.35142e-05
3.34135e-05
1.93858e-05
6.36662e-05
6.78519e-05
5.36023e-05
4.94239e-05
4.96174e-05
5.21897e-05
5.79683e-05
6.32164e-05
6.63681e-05
6.89867e-05
6.67685e-05
6.10902e-05
5.09938e-05
3.79951e-05
3.1533e-05
2.17018e-05
2.38823e-05
3.28125e-05
3.54855e-05
1.88785e-05
6.12065e-05
7.18977e-05
6.09707e-05
5.44361e-05
5.29474e-05
5.49093e-05
6.03479e-05
6.61013e-05
7.02989e-05
7.40523e-05
7.51455e-05
7.24496e-05
6.5568e-05
5.17611e-05
3.80324e-05
2.50184e-05
2.32499e-05
3.28814e-05
3.73484e-05
1.83503e-05
5.3191e-05
7.43543e-05
7.13891e-05
6.45584e-05
6.03954e-05
6.02634e-05
6.17911e-05
6.48779e-05
6.86289e-05
7.1415e-05
7.22607e-05
7.1409e-05
6.66095e-05
5.8094e-05
4.49356e-05
3.02673e-05
2.31323e-05
3.36946e-05
3.92713e-05
1.72075e-05
4.4731e-05
7.14138e-05
8.01419e-05
7.60407e-05
7.06223e-05
6.54829e-05
6.40862e-05
6.32175e-05
6.28555e-05
6.24297e-05
6.1583e-05
6.01307e-05
5.60911e-05
4.93829e-05
3.83198e-05
2.74815e-05
2.2017e-05
3.34539e-05
4.15502e-05
1.63576e-05
3.87991e-05
6.08829e-05
6.83871e-05
6.67195e-05
6.30456e-05
5.78076e-05
5.25043e-05
4.83122e-05
4.50944e-05
4.20335e-05
3.92347e-05
3.67598e-05
3.38937e-05
3.16161e-05
2.78849e-05
2.34882e-05
2.33996e-05
3.66325e-05
4.47703e-05
1.69564e-05
2.13899e-05
2.53261e-05
2.71029e-05
2.78075e-05
2.76705e-05
2.72447e-05
2.64812e-05
2.57488e-05
2.52991e-05
2.51574e-05
2.5242e-05
2.57645e-05
2.63545e-05
2.75463e-05
2.84211e-05
2.97687e-05
3.38498e-05
4.59265e-05
5.00738e-05
3.51057e-05
4.40584e-05
4.93859e-05
5.19913e-05
5.33385e-05
5.41066e-05
5.4576e-05
5.49109e-05
5.51237e-05
5.53237e-05
5.54466e-05
5.56075e-05
5.57005e-05
5.58856e-05
5.60493e-05
5.63767e-05
5.66973e-05
5.7163e-05
5.87303e-05
5.57884e-05
)
;

boundaryField
{
    movingWall
    {
        type            nutkWallFunction;
        Cmu             0.09;
        kappa           0.41;
        E               9.8;
        value           nonuniform List<scalar> 
20
(
0
0
3.63098e-07
7.95615e-07
1.01742e-06
1.14286e-06
1.2182e-06
1.27126e-06
1.30437e-06
1.33573e-06
1.35454e-06
1.37981e-06
1.3944e-06
1.42362e-06
1.44982e-06
1.50257e-06
1.55439e-06
1.62958e-06
1.88207e-06
1.40438e-06
)
;
    }
    movingWallBottom
    {
        type            nutkWallFunction;
        Cmu             0.09;
        kappa           0.41;
        E               9.8;
        value           nonuniform List<scalar> 
20
(
0
0
3.66088e-07
7.98645e-07
1.02099e-06
1.14707e-06
1.22292e-06
1.2763e-06
1.30954e-06
1.3408e-06
1.35936e-06
1.38418e-06
1.39842e-06
1.42697e-06
1.45285e-06
1.50517e-06
1.55671e-06
1.63172e-06
1.88375e-06
1.40546e-06
)
;
    }
    fixedWalls
    {
        type            nutkWallFunction;
        Cmu             0.09;
        kappa           0.41;
        E               9.8;
        value           nonuniform List<scalar> 
40
(
0
0
0
0
0
0
0
0
0
0
0
0
0
0
0
0
0
0
0
0
1.40546e-06
4.66772e-07
0
0
0
0
0
0
0
0
0
0
0
0
0
0
0
0
4.66167e-07
1.40438e-06
)
;
    }
    frontAndBack
    {
        type            empty;
    }
}


// ************************************************************************* //
