/*--------------------------------*- C++ -*----------------------------------*\
| =========                 |                                                 |
| \\      /  F ield         | OpenFOAM: The Open Source CFD Toolbox           |
|  \\    /   O peration     | Version:  4.1                                   |
|   \\  /    A nd           | Web:      www.OpenFOAM.org                      |
|    \\/     M anipulation  |                                                 |
\*---------------------------------------------------------------------------*/
FoamFile
{
    version     2.0;
    format      ascii;
    class       volScalarField;
    location    "2";
    object      p;
}
// * * * * * * * * * * * * * * * * * * * * * * * * * * * * * * * * * * * * * //

dimensions      [0 2 -2 0 0 0 0];

internalField   nonuniform List<scalar> 
400
(
8.22643e-08
0.000817046
-0.00113859
-0.00314487
-0.00507704
-0.00703066
-0.00896189
-0.0107294
-0.0121959
-0.0132853
-0.0139723
-0.0142687
-0.0141782
-0.0136789
-0.0126793
-0.0109405
-0.00755823
-0.00105159
0.0100222
0.0294464
-0.00511185
-0.00405275
-0.00418408
-0.00497648
-0.00631266
-0.00799973
-0.00977485
-0.0114153
-0.0127751
-0.0137761
-0.0144033
-0.0146778
-0.0146283
-0.0142638
-0.0135243
-0.0122166
-0.0100823
-0.00609733
9.39775e-05
0.017949
-0.00401032
-0.0037805
-0.00429306
-0.00538829
-0.00692222
-0.00869288
-0.0104698
-0.0120496
-0.0133039
-0.0141753
-0.0146757
-0.0148374
-0.0147247
-0.0143633
-0.0137865
-0.0129063
-0.0116797
-0.0093265
-0.00718274
0.00291461
-0.00398003
-0.00411267
-0.00483966
-0.00613237
-0.00783251
-0.00970507
-0.0114976
-0.0130108
-0.014137
-0.0148531
-0.0151984
-0.0152375
-0.0150546
-0.0146666
-0.0141388
-0.0134376
-0.0127046
-0.0109232
-0.0107648
-0.00527788
-0.0036902
-0.00412129
-0.00506161
-0.00654521
-0.00846104
-0.0104916
-0.0123481
-0.0138329
-0.0148638
-0.015451
-0.0156636
-0.0155959
-0.0153113
-0.0148797
-0.014348
-0.0136829
-0.0131927
-0.0115258
-0.0113656
-0.00729504
-0.00298677
-0.00368918
-0.00478349
-0.00643204
-0.0086272
-0.0108318
-0.0127845
-0.0142847
-0.0152746
-0.0157901
-0.0159221
-0.015764
-0.0154049
-0.0149125
-0.0143271
-0.0136412
-0.0130246
-0.0113589
-0.00990387
-0.00584075
-0.0017567
-0.00263379
-0.00385687
-0.0056847
-0.00803389
-0.0104406
-0.012539
-0.0141341
-0.0151715
-0.0157063
-0.0158306
-0.015641
-0.0152347
-0.0146895
-0.0140443
-0.0132544
-0.012172
-0.0099438
-0.00686139
-0.00241179
-0.000131137
-0.00109573
-0.00239073
-0.00434251
-0.00683824
-0.00940937
-0.0116856
-0.013449
-0.0146257
-0.0152559
-0.0154219
-0.015232
-0.0147902
-0.0141802
-0.0133993
-0.0122776
-0.0103506
-0.00689647
-0.00208929
0.00259428
0.00149335
0.000495325
-0.000789621
-0.00276348
-0.00532595
-0.00801498
-0.0104741
-0.0124481
-0.0138098
-0.014571
-0.0147996
-0.0146271
-0.0141684
-0.0134589
-0.0123907
-0.0106082
-0.00743259
-0.00234468
0.00432377
0.00827263
0.00250567
0.00150304
0.000239587
-0.00173043
-0.00432504
-0.00707129
-0.00958586
-0.0116274
-0.0130809
-0.0139345
-0.0142325
-0.0140732
-0.013583
-0.0127397
-0.0113281
-0.00880842
-0.00446457
0.00187865
0.00908936
0.0126916
0.00251459
0.00151237
0.00024908
-0.00172072
-0.00431599
-0.00706507
-0.00958219
-0.0116262
-0.0130822
-0.0139378
-0.014238
-0.0140826
-0.0135897
-0.0127451
-0.0113334
-0.00881428
-0.00447093
0.00187205
0.00908327
0.0126865
0.00151876
0.000521939
-0.000763
-0.00273788
-0.00530284
-0.00799725
-0.0104633
-0.012445
-0.0138142
-0.0145817
-0.0148132
-0.0146384
-0.0141824
-0.013474
-0.0124059
-0.0106231
-0.0074476
-0.00235965
0.00430898
0.00826102
-9.59279e-05
-0.00105949
-0.00235661
-0.00431105
-0.00680856
-0.00938791
-0.0116757
-0.0134498
-0.0146355
-0.0152727
-0.0154431
-0.0152552
-0.0148126
-0.0142015
-0.0134192
-0.0122962
-0.0103686
-0.00691373
-0.00210612
0.00258006
-0.00171951
-0.00259643
-0.00382589
-0.00565962
-0.00800174
-0.0104195
-0.0125321
-0.0141397
-0.0151871
-0.015729
-0.0158573
-0.0156693
-0.0152621
-0.0147147
-0.014067
-0.0132746
-0.0121907
-0.00996128
-0.00687796
-0.00242647
-0.00295239
-0.00365558
-0.00476327
-0.00643457
-0.00857921
-0.010813
-0.012785
-0.0142982
-0.015298
-0.0158202
-0.0159557
-0.0157981
-0.0154369
-0.014941
-0.0143519
-0.0136625
-0.0130437
-0.0113761
-0.0099199
-0.00585509
-0.00365987
-0.00409318
-0.00503875
-0.00652948
-0.00844018
-0.0104846
-0.0123569
-0.0138541
-0.0148942
-0.0154874
-0.0157026
-0.0156347
-0.0153465
-0.01491
-0.0143734
-0.0137042
-0.0132112
-0.0115425
-0.0113805
-0.00730733
-0.00395148
-0.00408734
-0.00481568
-0.00611042
-0.0078139
-0.00969813
-0.011505
-0.0130309
-0.0141668
-0.014889
-0.0152368
-0.015275
-0.0150894
-0.0146959
-0.0141625
-0.0134568
-0.0127205
-0.0109376
-0.0107753
-0.00528393
-0.00398153
-0.00375473
-0.00426832
-0.00536251
-0.00689853
-0.00867783
-0.0104676
-0.0120603
-0.0133255
-0.0142043
-0.0147083
-0.0148699
-0.0147547
-0.0143891
-0.0138069
-0.0129215
-0.0116908
-0.00933473
-0.00718366
0.00292096
-0.00508416
-0.0040265
-0.00416014
-0.00495097
-0.00628727
-0.00798043
-0.00976651
-0.0114195
-0.0127906
-0.0138002
-0.0144326
-0.0147087
-0.0146576
-0.0142887
-0.0135423
-0.0122278
-0.0100872
-0.00609509
0.000107277
0.0179723
2.14623e-05
0.00083127
-0.00112362
-0.00312606
-0.00505693
-0.00701496
-0.00895528
-0.010734
-0.0122109
-0.0133084
-0.0140001
-0.0142975
-0.0142048
-0.0137007
-0.0126946
-0.010949
-0.00755675
-0.00103831
0.0100489
0.0294829
)
;

boundaryField
{
    movingWall
    {
        type            zeroGradient;
    }
    movingWallBottom
    {
        type            zeroGradient;
    }
    fixedWalls
    {
        type            zeroGradient;
    }
    frontAndBack
    {
        type            empty;
    }
}


// ************************************************************************* //
