/*--------------------------------*- C++ -*----------------------------------*\
| =========                 |                                                 |
| \\      /  F ield         | OpenFOAM: The Open Source CFD Toolbox           |
|  \\    /   O peration     | Version:  4.1                                   |
|   \\  /    A nd           | Web:      www.OpenFOAM.org                      |
|    \\/     M anipulation  |                                                 |
\*---------------------------------------------------------------------------*/
FoamFile
{
    version     2.0;
    format      ascii;
    class       surfaceScalarField;
    location    "2";
    object      phi;
}
// * * * * * * * * * * * * * * * * * * * * * * * * * * * * * * * * * * * * * //

dimensions      [0 3 -1 0 0 0 0];

internalField   nonuniform List<scalar> 
760
(
2.72413e-06
-2.72414e-06
4.37929e-06
-1.65516e-06
5.6658e-06
-1.28651e-06
6.83941e-06
-1.17361e-06
7.92253e-06
-1.08312e-06
8.8932e-06
-9.70669e-07
9.74185e-06
-8.48652e-07
1.04676e-05
-7.25727e-07
1.10829e-05
-6.15335e-07
1.15944e-05
-5.11477e-07
1.20226e-05
-4.28178e-07
1.23689e-05
-3.46351e-07
1.26495e-05
-2.80542e-07
1.28404e-05
-1.90913e-07
1.2939e-05
-9.86485e-08
1.28095e-05
1.29525e-07
1.23111e-05
4.9835e-07
1.07771e-05
1.53408e-06
7.55195e-06
3.22512e-06
7.55195e-06
1.42576e-07
-2.86672e-06
9.35282e-07
-2.44786e-06
1.95535e-06
-2.30658e-06
2.95008e-06
-2.16834e-06
3.8401e-06
-1.97313e-06
4.61182e-06
-1.74239e-06
5.25085e-06
-1.48769e-06
5.74788e-06
-1.22275e-06
6.11051e-06
-9.77964e-07
6.35487e-06
-7.55836e-07
6.50403e-06
-5.77338e-07
6.57505e-06
-4.17369e-07
6.59026e-06
-2.95756e-07
6.5305e-06
-1.31158e-07
6.40568e-06
2.61753e-08
6.19265e-06
3.42552e-07
5.75569e-06
9.35317e-07
4.84967e-06
2.4401e-06
2.70266e-06
5.37213e-06
1.02546e-05
2.81032e-07
-3.14775e-06
1.01004e-06
-3.17687e-06
1.75529e-06
-3.05184e-06
2.46355e-06
-2.8766e-06
3.12016e-06
-2.62975e-06
3.67786e-06
-2.30009e-06
4.10352e-06
-1.91335e-06
4.38759e-06
-1.50682e-06
4.53069e-06
-1.12106e-06
4.55147e-06
-7.7661e-07
4.46247e-06
-4.88339e-07
4.29262e-06
-2.47521e-07
4.04865e-06
-5.17895e-08
3.76081e-06
1.56684e-07
3.41757e-06
3.69412e-07
3.03089e-06
7.29232e-07
2.49505e-06
1.47116e-06
1.8974e-06
3.03774e-06
8.73319e-07
6.39621e-06
1.11279e-05
4.21597e-07
-3.56935e-06
9.69371e-07
-3.72464e-06
1.51864e-06
-3.60111e-06
2.07182e-06
-3.42978e-06
2.58707e-06
-3.14499e-06
2.99907e-06
-2.7121e-06
3.27268e-06
-2.18695e-06
3.40472e-06
-1.63887e-06
3.40903e-06
-1.12537e-06
3.31046e-06
-6.78033e-07
3.13049e-06
-3.0837e-07
2.89482e-06
-1.18565e-08
2.59807e-06
2.44961e-07
2.27426e-06
4.80494e-07
1.91984e-06
7.23833e-07
1.5723e-06
1.07677e-06
1.15859e-06
1.88488e-06
7.20174e-07
3.47616e-06
2.66898e-07
6.84949e-06
1.13948e-05
3.06939e-07
-3.87628e-06
5.9202e-07
-4.00972e-06
9.22663e-07
-3.93175e-06
1.28454e-06
-3.79166e-06
1.58537e-06
-3.44581e-06
1.76552e-06
-2.89225e-06
1.82666e-06
-2.2481e-06
1.79353e-06
-1.60574e-06
1.69376e-06
-1.0256e-06
1.55329e-06
-5.37569e-07
1.38936e-06
-1.44436e-07
1.20406e-06
1.73445e-07
1.01459e-06
4.34428e-07
8.24507e-07
6.70577e-07
6.32349e-07
9.15992e-07
4.14908e-07
1.29421e-06
2.82812e-07
2.01697e-06
-1.02914e-07
3.86188e-06
-2.45777e-07
6.99235e-06
1.1149e-05
1.00718e-08
-3.88636e-06
-1.37884e-08
-3.98586e-06
-5.27198e-09
-3.94027e-06
9.90973e-10
-3.79792e-06
-5.14949e-08
-3.39333e-06
-1.55995e-07
-2.78775e-06
-2.88652e-07
-2.11544e-06
-4.21298e-07
-1.47309e-06
-5.32747e-07
-9.14154e-07
-6.16626e-07
-4.53689e-07
-6.77938e-07
-8.31247e-08
-7.14521e-07
2.10028e-07
-7.28625e-07
4.48532e-07
-7.26391e-07
6.68342e-07
-7.20675e-07
9.10276e-07
-7.25658e-07
1.2992e-06
-7.30093e-07
2.02141e-06
-7.83151e-07
3.91494e-06
-8.00386e-07
7.00959e-06
1.03487e-05
-4.02025e-07
-3.48433e-06
-8.23002e-07
-3.56489e-06
-1.21937e-06
-3.54391e-06
-1.61991e-06
-3.39738e-06
-2.02097e-06
-2.99227e-06
-2.35993e-06
-2.44879e-06
-2.61174e-06
-1.86362e-06
-2.77537e-06
-1.30946e-06
-2.85642e-06
-8.33104e-07
-2.86406e-06
-4.46056e-07
-2.81233e-06
-1.34851e-07
-2.71346e-06
1.11161e-07
-2.57606e-06
3.11127e-07
-2.41737e-06
5.09657e-07
-2.27092e-06
7.63821e-07
-2.17151e-06
1.19978e-06
-2.16227e-06
2.01217e-06
-2.02413e-06
3.7768e-06
-1.58861e-06
6.57407e-06
8.76005e-06
-8.33649e-07
-2.65068e-06
-1.69788e-06
-2.70066e-06
-2.53869e-06
-2.70309e-06
-3.33497e-06
-2.6011e-06
-4.01754e-06
-2.3097e-06
-4.55035e-06
-1.91598e-06
-4.93484e-06
-1.47914e-06
-5.17572e-06
-1.06858e-06
-5.29669e-06
-7.12128e-07
-5.31687e-06
-4.2588e-07
-5.26078e-06
-1.90937e-07
-5.16734e-06
1.77123e-08
-5.04212e-06
1.8591e-07
-4.90486e-06
3.72403e-07
-4.76554e-06
6.24499e-07
-4.59116e-06
1.0254e-06
-4.34634e-06
1.76735e-06
-3.74328e-06
3.17374e-06
-2.28986e-06
5.12065e-06
6.47019e-06
-1.21688e-06
-1.4338e-06
-2.45959e-06
-1.45794e-06
-3.70048e-06
-1.46221e-06
-4.88955e-06
-1.41202e-06
-5.93753e-06
-1.26173e-06
-6.79418e-06
-1.05933e-06
-7.4257e-06
-8.47619e-07
-7.85093e-06
-6.43348e-07
-8.11107e-06
-4.51981e-07
-8.249e-06
-2.87956e-07
-8.29545e-06
-1.44483e-07
-8.27125e-06
-6.4928e-09
-8.18236e-06
9.70262e-08
-8.01908e-06
2.09124e-07
-7.7564e-06
3.61816e-07
-7.32495e-06
5.93956e-07
-6.59117e-06
1.03356e-06
-5.23205e-06
1.81462e-06
-3.04734e-06
2.93594e-06
3.42285e-06
-1.41881e-06
-1.49898e-08
-2.86476e-06
-1.19978e-08
-4.32114e-06
-5.82865e-09
-5.73139e-06
-1.77287e-09
-6.99398e-06
8.70033e-10
-8.05681e-06
3.50293e-09
-8.90986e-06
5.42361e-09
-9.55953e-06
6.32928e-09
-1.00181e-05
6.57981e-09
-1.03121e-05
6.05631e-09
-1.04621e-05
5.50718e-09
-1.04738e-05
5.21919e-09
-1.03808e-05
4.0619e-09
-1.01742e-05
2.52747e-09
-9.81392e-06
1.48334e-09
-9.21995e-06
-5.95968e-12
-8.18526e-06
-1.13439e-09
-6.36775e-06
-2.88899e-09
-3.42741e-06
-4.40074e-09
-4.55675e-09
-1.41905e-06
1.40406e-06
-2.86506e-06
1.43401e-06
-4.32166e-06
1.45077e-06
-5.73233e-06
1.4089e-06
-6.9953e-06
1.26385e-06
-8.05845e-06
1.06665e-06
-8.91098e-06
8.57952e-07
-9.56021e-06
6.55556e-07
-1.00186e-05
4.65014e-07
-1.0313e-05
3.00464e-07
-1.0463e-05
1.55422e-07
-1.04762e-05
1.84803e-08
-1.0381e-05
-9.1141e-08
-1.01736e-05
-2.04853e-07
-9.81287e-06
-3.59289e-07
-9.21899e-06
-5.93884e-07
-8.18439e-06
-1.03574e-06
-6.36726e-06
-1.82002e-06
-3.42741e-06
-2.94425e-06
-3.43196e-06
-1.21961e-06
2.62367e-06
-2.46467e-06
2.67907e-06
-3.70793e-06
2.69403e-06
-4.89998e-06
2.60095e-06
-5.95008e-06
2.31395e-06
-6.80794e-06
1.92452e-06
-7.44005e-06
1.49006e-06
-7.86487e-06
1.08038e-06
-8.12352e-06
7.23663e-07
-8.25918e-06
4.36122e-07
-8.30373e-06
1.99971e-07
-8.27342e-06
-1.1825e-08
-8.18359e-06
-1.80969e-07
-8.01905e-06
-3.69396e-07
-7.75508e-06
-6.23257e-07
-7.32314e-06
-1.02582e-06
-6.58941e-06
-1.76947e-06
-5.23097e-06
-3.17846e-06
-3.04697e-06
-5.12826e-06
-6.47893e-06
-8.37802e-07
3.46147e-06
-1.70611e-06
3.54737e-06
-2.54998e-06
3.53791e-06
-3.34922e-06
3.4002e-06
-4.0347e-06
2.99943e-06
-4.56834e-06
2.45815e-06
-4.95243e-06
1.87415e-06
-5.19203e-06
1.31999e-06
-5.31112e-06
8.42749e-07
-5.32921e-06
4.54211e-07
-5.27045e-06
1.41211e-07
-5.17503e-06
-1.07243e-07
-5.04678e-06
-3.09217e-07
-4.90689e-06
-5.09287e-07
-4.7655e-06
-7.64655e-07
-4.58979e-06
-1.20152e-06
-4.34459e-06
-2.01467e-06
-3.74211e-06
-3.78094e-06
-2.2894e-06
-6.58096e-06
-8.76833e-06
-4.06386e-07
3.86786e-06
-8.32777e-07
3.97376e-06
-1.23415e-06
3.93928e-06
-1.63744e-06
3.80348e-06
-2.04123e-06
3.40322e-06
-2.38007e-06
2.79698e-06
-2.63118e-06
2.12526e-06
-2.79377e-06
1.48258e-06
-2.87341e-06
9.22383e-07
-2.87933e-06
4.60132e-07
-2.82533e-06
8.72097e-08
-2.72413e-06
-2.08435e-07
-2.58405e-06
-4.49302e-07
-2.42245e-06
-6.70886e-07
-2.27336e-06
-9.13748e-07
-2.17189e-06
-1.30299e-06
-2.16144e-06
-2.02513e-06
-2.02315e-06
-3.91923e-06
-1.5881e-06
-7.01602e-06
-1.03564e-05
5.39165e-09
3.86247e-06
-2.32859e-08
4.00244e-06
-1.80618e-08
3.93406e-06
-1.73536e-08
3.80277e-06
-7.12922e-08
3.45716e-06
-1.78256e-07
2.90395e-06
-3.11144e-07
2.25815e-06
-4.42623e-07
1.61406e-06
-5.52249e-07
1.03201e-06
-6.33802e-07
5.41685e-07
-6.92539e-07
1.45946e-07
-7.26422e-07
-1.74553e-07
-7.37716e-07
-4.38008e-07
-7.3264e-07
-6.75962e-07
-7.24342e-07
-9.22046e-07
-7.27245e-07
-1.30008e-06
-7.30274e-07
-2.0221e-06
-7.82805e-07
-3.8667e-06
-8.00035e-07
-6.99879e-06
-1.11565e-05
3.04117e-07
3.55835e-06
5.86257e-07
3.7203e-06
9.14483e-07
3.60583e-06
1.275e-06
3.44226e-06
1.57283e-06
3.15933e-06
1.75165e-06
2.72512e-06
1.81249e-06
2.19732e-06
1.78014e-06
1.6464e-06
1.68199e-06
1.13017e-06
1.5436e-06
6.80074e-07
1.38183e-06
3.07714e-07
1.1982e-06
9.07382e-09
1.01058e-06
-2.50385e-07
8.22014e-07
-4.87395e-07
6.31167e-07
-7.31199e-07
4.1436e-07
-1.08328e-06
2.82983e-07
-1.89072e-06
-1.02593e-07
-3.48112e-06
-2.45318e-07
-6.85606e-06
-1.14018e-05
4.17407e-07
3.14094e-06
9.64035e-07
3.17367e-06
1.51553e-06
3.05434e-06
2.07227e-06
2.88552e-06
2.59001e-06
2.64158e-06
3.00347e-06
2.31167e-06
3.27785e-06
1.92293e-06
3.41058e-06
1.51367e-06
3.41564e-06
1.12511e-06
3.31769e-06
7.7802e-07
3.13808e-06
4.87329e-07
2.90261e-06
2.44537e-07
2.60453e-06
4.77016e-08
2.27971e-06
-1.62575e-07
1.92379e-06
-3.75285e-07
1.57483e-06
-7.34313e-07
1.15995e-06
-1.47584e-06
7.21309e-07
-3.04248e-06
2.67544e-07
-6.4023e-06
-1.11342e-05
2.75837e-07
2.8651e-06
1.004e-06
2.44551e-06
1.75201e-06
2.30633e-06
2.46563e-06
2.1719e-06
3.12769e-06
1.97952e-06
3.68971e-06
1.74965e-06
4.11838e-06
1.49426e-06
4.40435e-06
1.2277e-06
4.54834e-06
9.81118e-07
4.56911e-06
7.5725e-07
4.47921e-06
5.77232e-07
4.3077e-06
4.1605e-07
4.06193e-06
2.93474e-07
3.77155e-06
1.27804e-07
3.42479e-06
-2.85271e-08
3.03575e-06
-3.45273e-07
2.49814e-06
-9.38229e-07
1.9e-06
-2.44434e-06
8.74732e-07
-5.37702e-06
-1.02595e-05
1.39276e-07
2.72583e-06
9.29895e-07
1.65489e-06
1.95057e-06
1.28566e-06
2.94877e-06
1.17369e-06
3.84353e-06
1.08476e-06
4.62003e-06
9.73147e-07
5.2631e-06
8.51188e-07
5.76293e-06
7.27875e-07
6.12715e-06
6.16893e-07
6.37202e-06
5.1238e-07
6.52086e-06
4.28397e-07
6.59081e-06
3.46096e-07
6.60447e-06
2.7982e-07
6.54228e-06
1.89986e-07
6.41593e-06
9.78272e-08
6.20142e-06
-1.30762e-07
5.76278e-06
-4.99592e-07
4.85485e-06
-1.53641e-06
2.70524e-06
-3.22742e-06
-7.55427e-06
2.72583e-06
4.38072e-06
5.66638e-06
6.84007e-06
7.92484e-06
8.89798e-06
9.74917e-06
1.0477e-05
1.10939e-05
1.16063e-05
1.20347e-05
1.23808e-05
1.26606e-05
1.28506e-05
1.29484e-05
1.28177e-05
1.23181e-05
1.07817e-05
7.55427e-06
)
;

boundaryField
{
    movingWall
    {
        type            calculated;
        value           uniform 0;
    }
    movingWallBottom
    {
        type            calculated;
        value           uniform 0;
    }
    fixedWalls
    {
        type            calculated;
        value           uniform 0;
    }
    frontAndBack
    {
        type            empty;
        value           nonuniform 0();
    }
}


// ************************************************************************* //
