/*--------------------------------*- C++ -*----------------------------------*\
| =========                 |                                                 |
| \\      /  F ield         | OpenFOAM: The Open Source CFD Toolbox           |
|  \\    /   O peration     | Version:  4.1                                   |
|   \\  /    A nd           | Web:      www.OpenFOAM.org                      |
|    \\/     M anipulation  |                                                 |
\*---------------------------------------------------------------------------*/
FoamFile
{
    version     2.0;
    format      ascii;
    class       volVectorField;
    location    "2";
    object      U;
}
// * * * * * * * * * * * * * * * * * * * * * * * * * * * * * * * * * * * * * //

dimensions      [0 1 -1 0 0 0 0];

internalField   nonuniform List<vector> 
400
(
(0.0542399 -0.0975177 0)
(0.0650037 -0.0607499 0)
(0.0995216 -0.03876 0)
(0.126438 -0.0290964 0)
(0.148505 -0.0239737 0)
(0.168386 -0.0204105 0)
(0.186096 -0.0176411 0)
(0.202054 -0.0152975 0)
(0.215523 -0.0133705 0)
(0.227098 -0.0117229 0)
(0.236498 -0.0102877 0)
(0.244191 -0.00911737 0)
(0.250335 -0.00779975 0)
(0.254562 -0.00679864 0)
(0.257582 -0.00486284 0)
(0.256691 -0.00226471 0)
(0.250489 0.000304583 0)
(0.236286 0.00891044 0)
(0.182731 0.021582 0)
(0.170207 0.117827 0)
(0.00122818 -0.0323893 0)
(0.00674447 -0.0213716 0)
(0.0285994 -0.0237014 0)
(0.0493445 -0.0254576 0)
(0.067518 -0.0247535 0)
(0.084155 -0.0225404 0)
(0.0983454 -0.0196189 0)
(0.110037 -0.0164495 0)
(0.118605 -0.0135624 0)
(0.125163 -0.0107912 0)
(0.128839 -0.00876599 0)
(0.131481 -0.00661366 0)
(0.131646 -0.00533442 0)
(0.131479 -0.00269387 0)
(0.128146 -0.000630655 0)
(0.12613 0.00551772 0)
(0.115391 0.0146635 0)
(0.112682 0.0406033 0)
(0.0576215 0.0852445 0)
(0.0870459 0.158625 0)
(0.0013904 -0.0653353 0)
(0.0118449 -0.0626722 0)
(0.0276369 -0.0587563 0)
(0.0419966 -0.0547664 0)
(0.0555959 -0.0498924 0)
(0.0678429 -0.0440118 0)
(0.0777851 -0.0373446 0)
(0.0851246 -0.0303095 0)
(0.0895278 -0.0236284 0)
(0.0914603 -0.0176258 0)
(0.0906555 -0.0125707 0)
(0.0884199 -0.00835357 0)
(0.0835982 -0.00483969 0)
(0.0789358 -0.00130773 0)
(0.0707464 0.00223615 0)
(0.0656496 0.00960864 0)
(0.0506925 0.0245286 0)
(0.0554656 0.0581893 0)
(0.00451056 0.123616 0)
(0.0474329 0.213837 0)
(0.00428224 -0.0669968 0)
(0.0141397 -0.0694757 0)
(0.0245246 -0.0671501 0)
(0.0355255 -0.0635249 0)
(0.0463225 -0.058236 0)
(0.0557657 -0.050777 0)
(0.0628115 -0.041826 0)
(0.0670808 -0.0323599 0)
(0.0686092 -0.0232792 0)
(0.0678227 -0.0151425 0)
(0.0650057 -0.00829112 0)
(0.0608716 -0.00253128 0)
(0.0552413 0.00223509 0)
(0.0492954 0.00676048 0)
(0.0415167 0.0115035 0)
(0.0365269 0.0186896 0)
(0.0218305 0.0348208 0)
(0.0315792 0.0675948 0)
(-0.0122511 0.137773 0)
(0.0303273 0.23786 0)
(0.00358139 -0.0765317 0)
(0.0091707 -0.0798037 0)
(0.0147586 -0.0776091 0)
(0.0217517 -0.0744967 0)
(0.0283989 -0.0685332 0)
(0.0333076 -0.0589403 0)
(0.0358597 -0.04711 0)
(0.0363157 -0.0346663 0)
(0.0351711 -0.0230391 0)
(0.0329122 -0.0130084 0)
(0.0298401 -0.00475681 0)
(0.0262813 0.00185627 0)
(0.0223923 0.00710159 0)
(0.0186242 0.0118744 0)
(0.0142057 0.0167915 0)
(0.0125627 0.0241628 0)
(0.000980023 0.0393513 0)
(0.0140558 0.0735631 0)
(-0.0214389 0.143344 0)
(0.0176869 0.235847 0)
(0.000157028 -0.0793728 0)
(-1.3916e-06 -0.0816318 0)
(-0.000357811 -0.08058 0)
(0.000126335 -0.0781018 0)
(-0.000351899 -0.0707373 0)
(-0.00211459 -0.058731 0)
(-0.00465912 -0.0448208 0)
(-0.00724986 -0.0312606 0)
(-0.00950753 -0.0192981 0)
(-0.0113236 -0.00942609 0)
(-0.0127889 -0.00155289 0)
(-0.0137796 0.00465361 0)
(-0.0143222 0.00969281 0)
(-0.0144685 0.0143767 0)
(-0.0145515 0.0194182 0)
(-0.0132033 0.0269298 0)
(-0.0193767 0.0406672 0)
(-0.00595435 0.0766006 0)
(-0.0314688 0.140592 0)
(0.00911859 0.221309 0)
(-0.00592093 -0.0747242 0)
(-0.0119068 -0.0769351 0)
(-0.0197432 -0.0763751 0)
(-0.0288012 -0.0733148 0)
(-0.0380763 -0.064511 0)
(-0.0453207 -0.0523013 0)
(-0.0509079 -0.0393983 0)
(-0.0545271 -0.0273176 0)
(-0.0564754 -0.0168971 0)
(-0.0571728 -0.0084066 0)
(-0.0566243 -0.00161778 0)
(-0.0550661 0.00379837 0)
(-0.0527146 0.00814405 0)
(-0.0497869 0.0121106 0)
(-0.0471102 0.0162494 0)
(-0.0449934 0.0232921 0)
(-0.0467744 0.0377805 0)
(-0.0372701 0.07629 0)
(-0.0469178 0.138272 0)
(-0.00448555 0.196148 0)
(-0.0111187 -0.0614147 0)
(-0.0248504 -0.0632189 0)
(-0.041128 -0.0630574 0)
(-0.0599777 -0.0602262 0)
(-0.0761094 -0.0530161 0)
(-0.0877432 -0.0436743 0)
(-0.0966506 -0.0333711 0)
(-0.102155 -0.0235391 0)
(-0.10517 -0.0152839 0)
(-0.106229 -0.00866239 0)
(-0.105509 -0.0033545 0)
(-0.103832 0.000984606 0)
(-0.101711 0.0048337 0)
(-0.0995646 0.00884151 0)
(-0.0982407 0.0144694 0)
(-0.096613 0.0238157 0)
(-0.0930098 0.0413247 0)
(-0.078999 0.0763577 0)
(-0.0629897 0.125427 0)
(-0.016451 0.160769 0)
(-0.0159549 -0.0405941 0)
(-0.0359848 -0.0416492 0)
(-0.0598828 -0.041621 0)
(-0.0874013 -0.0397061 0)
(-0.111133 -0.0349449 0)
(-0.129828 -0.0287245 0)
(-0.144797 -0.0223091 0)
(-0.154369 -0.0166765 0)
(-0.160495 -0.0114357 0)
(-0.163814 -0.00712227 0)
(-0.165011 -0.00340173 0)
(-0.165127 2.22244e-06 0)
(-0.164835 0.00338332 0)
(-0.163439 0.00710677 0)
(-0.161057 0.0121192 0)
(-0.155572 0.0200166 0)
(-0.142739 0.0344638 0)
(-0.117542 0.0595056 0)
(-0.0751222 0.092504 0)
(-0.0410386 0.108141 0)
(-0.0183795 -0.014307 0)
(-0.0419327 -0.0147008 0)
(-0.06985 -0.0147547 0)
(-0.102011 -0.0143054 0)
(-0.130311 -0.0129712 0)
(-0.153311 -0.0111946 0)
(-0.172005 -0.00914421 0)
(-0.186548 -0.00664708 0)
(-0.196944 -0.00453362 0)
(-0.203909 -0.0027324 0)
(-0.207719 -0.00125515 0)
(-0.209388 -2.199e-06 0)
(-0.209478 0.00147243 0)
(-0.208084 0.00286211 0)
(-0.204273 0.00496992 0)
(-0.195091 0.00815095 0)
(-0.175988 0.0141046 0)
(-0.142524 0.0237819 0)
(-0.0923184 0.0360878 0)
(-0.0442693 0.041057 0)
(-0.0183799 0.0137234 0)
(-0.0419395 0.0142308 0)
(-0.0698569 0.0145303 0)
(-0.102022 0.0142429 0)
(-0.130332 0.0130146 0)
(-0.153354 0.011343 0)
(-0.172034 0.00936453 0)
(-0.186562 0.00690231 0)
(-0.196956 0.00479867 0)
(-0.203916 0.00298052 0)
(-0.207741 0.00146826 0)
(-0.209415 0.000176772 0)
(-0.209493 -0.00132713 0)
(-0.208077 -0.00276526 0)
(-0.204256 -0.00491327 0)
(-0.195071 -0.00815249 0)
(-0.17597 -0.0141585 0)
(-0.142511 -0.0239115 0)
(-0.0923128 -0.0362778 0)
(-0.0442604 -0.0412543 0)
(-0.0159776 0.040029 0)
(-0.0360663 0.0411935 0)
(-0.0600038 0.0414201 0)
(-0.0875784 0.0396677 0)
(-0.111376 0.0349989 0)
(-0.130096 0.028882 0)
(-0.145087 0.0225104 0)
(-0.154661 0.0169032 0)
(-0.160765 0.0116712 0)
(-0.164051 0.00733968 0)
(-0.165193 0.00359 0)
(-0.165225 0.000149361 0)
(-0.164853 -0.00325985 0)
(-0.163457 -0.00702142 0)
(-0.161031 -0.0120726 0)
(-0.15554 -0.020015 0)
(-0.142699 -0.0345052 0)
(-0.117513 -0.0596067 0)
(-0.0751177 -0.0926633 0)
(-0.0410102 -0.10832 0)
(-0.0111493 0.0609154 0)
(-0.0249798 0.0628164 0)
(-0.0413298 0.0628987 0)
(-0.0602296 0.0602559 0)
(-0.0764345 0.053126 0)
(-0.08811 0.0438411 0)
(-0.0970239 0.0335787 0)
(-0.102502 0.0237586 0)
(-0.10548 0.0154925 0)
(-0.106497 0.00884612 0)
(-0.10573 0.00350932 0)
(-0.103999 -0.000859979 0)
(-0.10183 -0.00475888 0)
(-0.0996259 -0.00879969 0)
(-0.0982555 -0.0144552 0)
(-0.0965948 -0.0238258 0)
(-0.0929763 -0.041361 0)
(-0.078961 -0.0764389 0)
(-0.0629902 -0.125566 0)
(-0.0164262 -0.160936 0)
(-0.0059532 0.0742892 0)
(-0.0120459 0.0766138 0)
(-0.0200003 0.0762761 0)
(-0.02913 0.0733713 0)
(-0.038469 0.0646651 0)
(-0.0457394 0.0524812 0)
(-0.0513161 0.0396026 0)
(-0.0549115 0.0275211 0)
(-0.0568311 0.0170776 0)
(-0.0574963 0.00855161 0)
(-0.0569069 0.00171854 0)
(-0.0552996 -0.00374589 0)
(-0.0528972 -0.00813156 0)
(-0.0499149 -0.0121311 0)
(-0.0471812 -0.0162901 0)
(-0.0450153 -0.0233418 0)
(-0.0467731 -0.0378338 0)
(-0.0372372 -0.0763646 0)
(-0.0469166 -0.138397 0)
(-0.00446449 -0.196306 0)
(0.000143037 0.0790531 0)
(-0.000105805 0.0814341 0)
(-0.000585431 0.0805803 0)
(-0.000208628 0.0782362 0)
(-0.000780748 0.0708937 0)
(-0.00260641 0.0588765 0)
(-0.00513051 0.044966 0)
(-0.00769983 0.0314002 0)
(-0.00991861 0.0194191 0)
(-0.0116884 0.00951702 0)
(-0.0131044 0.00160256 0)
(-0.0140408 -0.00465403 0)
(-0.0145284 -0.00974437 0)
(-0.0146172 -0.0144653 0)
(-0.0146483 -0.0195211 0)
(-0.0132467 -0.0270335 0)
(-0.0194031 -0.040763 0)
(-0.00593334 -0.0766949 0)
(-0.0314767 -0.140727 0)
(0.00914022 -0.221467 0)
(0.00353917 0.0762592 0)
(0.00909838 0.0796871 0)
(0.0146205 0.0777216 0)
(0.0215703 0.0747929 0)
(0.0281727 0.0688491 0)
(0.0330268 0.0592242 0)
(0.0355652 0.0473305 0)
(0.0360316 0.0348292 0)
(0.0349148 0.0231509 0)
(0.0326983 0.0130664 0)
(0.0296721 0.00475972 0)
(0.0261534 -0.00190855 0)
(0.0222988 -0.00719818 0)
(0.0185685 -0.0120042 0)
(0.0141678 -0.016933 0)
(0.0125565 -0.0242955 0)
(0.000964386 -0.0394661 0)
(0.014079 -0.073665 0)
(-0.0214447 -0.143483 0)
(0.0177071 -0.235998 0)
(0.0041956 0.0668119 0)
(0.0140427 0.0694078 0)
(0.0244382 0.067236 0)
(0.0354987 0.0637678 0)
(0.0463491 0.0585357 0)
(0.0558249 0.0510625 0)
(0.0628943 0.0420556 0)
(0.0671822 0.0325214 0)
(0.0687298 0.0233743 0)
(0.0679634 0.0151753 0)
(0.0651607 0.0082664 0)
(0.0610361 0.0024527 0)
(0.0553912 -0.00235238 0)
(0.0494308 -0.0068996 0)
(0.0416104 -0.0116465 0)
(0.0365965 -0.0188145 0)
(0.0218549 -0.0349373 0)
(0.0316097 -0.0677046 0)
(-0.0122421 -0.137911 0)
(0.0303545 -0.237999 0)
(0.00131993 0.0652448 0)
(0.0116884 0.0626649 0)
(0.0275438 0.0588315 0)
(0.0419892 0.0549398 0)
(0.0556875 0.0501254 0)
(0.068024 0.0442573 0)
(0.0780384 0.0375645 0)
(0.0854323 0.0304795 0)
(0.0898666 0.0237412 0)
(0.0918166 0.0176844 0)
(0.091004 0.0125794 0)
(0.0887557 0.00832492 0)
(0.0838845 0.00478212 0)
(0.0791975 0.00123422 0)
(0.070922 -0.00231437 0)
(0.0657736 -0.00967422 0)
(0.0507502 -0.0245987 0)
(0.0555237 -0.0582787 0)
(0.00455038 -0.123724 0)
(0.0474661 -0.213943 0)
(0.00119574 0.0324264 0)
(0.0066211 0.0212792 0)
(0.0284913 0.0235921 0)
(0.0492962 0.0253982 0)
(0.0675344 0.0247567 0)
(0.0842615 0.022575 0)
(0.0985372 0.0196594 0)
(0.110303 0.01648 0)
(0.118915 0.013579 0)
(0.125502 0.0107886 0)
(0.129183 0.00874794 0)
(0.131815 0.00658172 0)
(0.131952 0.00529503 0)
(0.131749 0.00264238 0)
(0.128361 0.00059021 0)
(0.126316 -0.00556461 0)
(0.115534 -0.0147089 0)
(0.112804 -0.0406647 0)
(0.0577024 -0.0853092 0)
(0.0870902 -0.15869 0)
(0.0542571 0.0975404 0)
(0.0650303 0.0608155 0)
(0.0995546 0.0388218 0)
(0.126464 0.0291471 0)
(0.148536 0.0240223 0)
(0.168449 0.0204597 0)
(0.186205 0.0176876 0)
(0.202213 0.015341 0)
(0.215723 0.013408 0)
(0.227327 0.0117578 0)
(0.236742 0.0103148 0)
(0.244439 0.00914336 0)
(0.250571 0.00781492 0)
(0.254789 0.00681436 0)
(0.257777 0.00486632 0)
(0.256867 0.00227115 0)
(0.250638 -0.000296438 0)
(0.236408 -0.00892015 0)
(0.1828 -0.021588 0)
(0.170249 -0.11783 0)
)
;

boundaryField
{
    movingWall
    {
        type            fixedValue;
        value           uniform (1 0 0);
    }
    movingWallBottom
    {
        type            fixedValue;
        value           uniform (1 0 0);
    }
    fixedWalls
    {
        type            noSlip;
    }
    frontAndBack
    {
        type            empty;
    }
}


// ************************************************************************* //
